/*--------------------------------*- C++ -*----------------------------------*\
| =========                 |                                                 |
| \\      /  F ield         | OpenFOAM: The Open Source CFD Toolbox           |
|  \\    /   O peration     | Version:  2412                                  |
|   \\  /    A nd           | Website:  www.openfoam.com                      |
|    \\/     M anipulation  |                                                 |
\*---------------------------------------------------------------------------*/
FoamFile
{
    version     2.0;
    format      ascii;
    arch        "LSB;label=32;scalar=64";
    class       volScalarField;
    location    "2500";
    object      p;
}
// * * * * * * * * * * * * * * * * * * * * * * * * * * * * * * * * * * * * * //

dimensions      [0 2 -2 0 0 0 0];

internalField   nonuniform List<scalar> 
360650
(
-4.46886
-4.46886
-4.46887
-4.46889
-4.4689
-4.46892
-4.46895
-4.46898
-4.46903
-4.46909
-4.46917
-4.46927
-4.4694
-4.46955
-4.46974
-4.46997
-4.47026
-4.47059
-4.47099
-4.47147
-4.47203
-4.47268
-4.47345
-4.47434
-4.47538
-4.47657
-4.47792
-4.47972
-4.45857
-4.45857
-4.45859
-4.4586
-4.45861
-4.45863
-4.45865
-4.45869
-4.45873
-4.45878
-4.45884
-4.45893
-4.45903
-4.45915
-4.45931
-4.45949
-4.45971
-4.45997
-4.46027
-4.46063
-4.46104
-4.46151
-4.46205
-4.46267
-4.46335
-4.4641
-4.46497
-4.46597
-4.44852
-4.44853
-4.44854
-4.44855
-4.44857
-4.44858
-4.44861
-4.44864
-4.44868
-4.44874
-4.44881
-4.44889
-4.449
-4.44913
-4.4493
-4.44949
-4.44973
-4.45001
-4.45034
-4.45073
-4.45118
-4.4517
-4.45229
-4.45297
-4.45372
-4.45456
-4.45549
-4.45642
-4.43852
-4.43853
-4.43854
-4.43855
-4.43857
-4.43859
-4.43861
-4.43864
-4.43868
-4.43874
-4.43881
-4.4389
-4.43901
-4.43914
-4.43931
-4.43951
-4.43975
-4.44005
-4.4404
-4.44081
-4.44129
-4.44186
-4.44252
-4.44329
-4.44418
-4.44521
-4.44641
-4.44771
-4.42873
-4.42874
-4.42875
-4.42876
-4.42877
-4.42879
-4.42881
-4.42884
-4.42888
-4.42893
-4.429
-4.42908
-4.42918
-4.4293
-4.42945
-4.42963
-4.42984
-4.4301
-4.4304
-4.43075
-4.43116
-4.43164
-4.43218
-4.4328
-4.4335
-4.43429
-4.43516
-4.43607
-4.41921
-4.41922
-4.41923
-4.41924
-4.41925
-4.41927
-4.41929
-4.41932
-4.41936
-4.41941
-4.41948
-4.41956
-4.41966
-4.41979
-4.41995
-4.42014
-4.42036
-4.42063
-4.42096
-4.42133
-4.42178
-4.42229
-4.42288
-4.42355
-4.42431
-4.42517
-4.42609
-4.42717
-4.40971
-4.40971
-4.40972
-4.40973
-4.40975
-4.40976
-4.40979
-4.40982
-4.40986
-4.40992
-4.40999
-4.41008
-4.41019
-4.41033
-4.4105
-4.41071
-4.41096
-4.41126
-4.41162
-4.41205
-4.41255
-4.41314
-4.41382
-4.41461
-4.41552
-4.41656
-4.4177
-4.41911
-4.40052
-4.40053
-4.40054
-4.40055
-4.40056
-4.40058
-4.4006
-4.40064
-4.40068
-4.40073
-4.4008
-4.40089
-4.401
-4.40114
-4.40131
-4.40152
-4.40178
-4.40208
-4.40245
-4.40288
-4.40339
-4.404
-4.40471
-4.40555
-4.40653
-4.40766
-4.409
-4.41075
-4.39111
-4.39112
-4.39113
-4.39114
-4.39116
-4.39117
-4.39119
-4.39122
-4.39126
-4.3913
-4.39136
-4.39143
-4.39152
-4.39162
-4.39176
-4.39191
-4.3921
-4.39232
-4.39258
-4.39288
-4.39323
-4.39363
-4.39409
-4.39459
-4.39516
-4.39577
-4.39649
-4.39709
-4.38251
-4.38252
-4.38253
-4.38254
-4.38255
-4.38257
-4.38259
-4.38262
-4.38266
-4.38271
-4.38277
-4.38285
-4.38295
-4.38307
-4.38321
-4.38339
-4.38361
-4.38386
-4.38417
-4.38452
-4.38494
-4.38542
-4.38597
-4.3866
-4.3873
-4.38809
-4.38892
-4.38973
-4.37347
-4.37348
-4.37349
-4.3735
-4.37351
-4.37353
-4.37355
-4.37358
-4.37362
-4.37367
-4.37373
-4.37381
-4.37391
-4.37403
-4.37418
-4.37437
-4.37459
-4.37485
-4.37517
-4.37555
-4.376
-4.37652
-4.37714
-4.37785
-4.37869
-4.37966
-4.38076
-4.38216
-117.973
-117.974
-117.974
-117.974
-117.975
-117.975
-117.976
-117.977
-117.978
-117.979
-117.98
-117.981
-117.982
-117.984
-117.985
-117.986
-117.987
-117.988
-117.989
-117.991
-117.992
-117.994
-117.996
-117.996
-117.995
-117.992
-117.988
-117.982
-118.166
-118.166
-118.167
-118.167
-118.168
-118.168
-118.169
-118.17
-118.171
-118.172
-118.173
-118.174
-118.175
-118.176
-118.177
-118.178
-118.179
-118.18
-118.181
-118.182
-118.183
-118.185
-118.186
-118.186
-118.185
-118.182
-118.178
-118.173
-118.366
-118.367
-118.367
-118.368
-118.368
-118.369
-118.369
-118.37
-118.37
-118.371
-118.372
-118.372
-118.373
-118.373
-118.374
-118.374
-118.374
-118.374
-118.374
-118.374
-118.374
-118.374
-118.374
-118.373
-118.37
-118.363
-118.355
-118.347
-118.584
-118.585
-118.585
-118.586
-118.586
-118.586
-118.587
-118.587
-118.588
-118.588
-118.589
-118.589
-118.59
-118.59
-118.59
-118.59
-118.59
-118.59
-118.59
-118.59
-118.589
-118.589
-118.589
-118.588
-118.585
-118.578
-118.569
-118.556
-118.806
-118.807
-118.807
-118.808
-118.808
-118.809
-118.809
-118.809
-118.81
-118.81
-118.811
-118.811
-118.811
-118.812
-118.812
-118.812
-118.812
-118.811
-118.811
-118.811
-118.811
-118.811
-118.81
-118.809
-118.807
-118.803
-118.796
-118.784
-119.038
-119.038
-119.039
-119.039
-119.039
-119.04
-119.04
-119.041
-119.041
-119.042
-119.042
-119.043
-119.043
-119.043
-119.044
-119.044
-119.044
-119.044
-119.044
-119.044
-119.044
-119.044
-119.044
-119.044
-119.043
-119.041
-119.037
-119.036
-198.244
-198.244
-198.245
-198.245
-198.246
-198.247
-198.249
-198.251
-198.254
-198.258
-198.262
-198.268
-198.275
-198.283
-198.293
-198.305
-198.318
-198.334
-198.352
-198.373
-198.396
-198.423
-198.452
-198.485
-198.521
-198.562
-198.607
-198.655
-199.592
-199.592
-199.592
-199.593
-199.594
-199.595
-199.597
-199.6
-199.603
-199.606
-199.611
-199.616
-199.623
-199.631
-199.641
-199.652
-199.666
-199.682
-199.7
-199.721
-199.745
-199.773
-199.804
-199.84
-199.879
-199.924
-199.973
-200.028
-200.865
-200.865
-200.865
-200.866
-200.867
-200.869
-200.871
-200.874
-200.877
-200.881
-200.886
-200.892
-200.899
-200.908
-200.917
-200.929
-200.943
-200.958
-200.977
-200.998
-201.022
-201.049
-201.08
-201.115
-201.154
-201.198
-201.245
-201.3
-202.036
-202.036
-202.037
-202.037
-202.039
-202.04
-202.043
-202.046
-202.049
-202.054
-202.059
-202.065
-202.073
-202.082
-202.092
-202.104
-202.118
-202.134
-202.152
-202.173
-202.197
-202.225
-202.255
-202.29
-202.329
-202.373
-202.42
-202.473
-203.1
-203.1
-203.1
-203.101
-203.102
-203.103
-203.106
-203.109
-203.113
-203.117
-203.123
-203.129
-203.137
-203.146
-203.156
-203.168
-203.182
-203.198
-203.216
-203.237
-203.26
-203.287
-203.317
-203.351
-203.389
-203.432
-203.478
-203.527
-148.324
-148.325
-148.326
-148.327
-148.327
-148.328
-148.329
-148.329
-148.33
-148.331
-148.331
-148.331
-148.332
-148.333
-148.334
-148.335
-148.338
-148.341
-148.345
-148.35
-148.357
-148.366
-148.376
-148.387
-148.399
-148.411
-148.427
-148.445
-149.82
-149.821
-149.822
-149.823
-149.824
-149.825
-149.826
-149.828
-149.829
-149.83
-149.832
-149.833
-149.834
-149.835
-149.837
-149.838
-149.84
-149.842
-149.845
-149.849
-149.854
-149.86
-149.868
-149.878
-149.889
-149.901
-149.916
-149.942
-151.372
-151.373
-151.374
-151.375
-151.376
-151.377
-151.378
-151.38
-151.382
-151.384
-151.386
-151.388
-151.39
-151.393
-151.395
-151.397
-151.399
-151.401
-151.403
-151.406
-151.41
-151.414
-151.419
-151.426
-151.434
-151.444
-151.453
-151.47
-152.957
-152.958
-152.959
-152.96
-152.96
-152.961
-152.962
-152.963
-152.965
-152.967
-152.969
-152.972
-152.974
-152.977
-152.98
-152.982
-152.985
-152.987
-152.99
-152.993
-152.995
-152.998
-153.002
-153.007
-153.014
-153.023
-153.031
-153.033
-154.645
-154.645
-154.646
-154.646
-154.647
-154.648
-154.648
-154.65
-154.651
-154.653
-154.656
-154.659
-154.663
-154.667
-154.671
-154.676
-154.682
-154.687
-154.694
-154.7
-154.707
-154.715
-154.725
-154.736
-154.748
-154.764
-154.781
-154.791
-156.408
-156.409
-156.409
-156.409
-156.41
-156.41
-156.411
-156.412
-156.413
-156.415
-156.418
-156.421
-156.425
-156.429
-156.434
-156.44
-156.447
-156.454
-156.462
-156.47
-156.48
-156.49
-156.502
-156.516
-156.53
-156.548
-156.568
-156.579
-116.953
-116.953
-116.954
-116.954
-116.955
-116.955
-116.956
-116.957
-116.958
-116.959
-116.961
-116.963
-116.965
-116.968
-116.972
-116.976
-116.982
-116.989
-116.997
-117.007
-117.019
-117.032
-117.047
-117.064
-117.082
-117.101
-117.123
-117.146
-116.984
-116.984
-116.985
-116.985
-116.986
-116.986
-116.987
-116.988
-116.988
-116.989
-116.991
-116.992
-116.994
-116.996
-116.999
-117.002
-117.007
-117.013
-117.02
-117.03
-117.04
-117.053
-117.066
-117.081
-117.097
-117.114
-117.133
-117.152
-117.029
-117.029
-117.03
-117.03
-117.03
-117.031
-117.031
-117.032
-117.032
-117.033
-117.033
-117.034
-117.036
-117.037
-117.039
-117.042
-117.046
-117.051
-117.058
-117.067
-117.077
-117.089
-117.103
-117.118
-117.133
-117.15
-117.168
-117.189
-117.073
-117.074
-117.074
-117.074
-117.075
-117.075
-117.075
-117.076
-117.076
-117.077
-117.077
-117.078
-117.079
-117.08
-117.082
-117.084
-117.088
-117.092
-117.099
-117.107
-117.117
-117.129
-117.143
-117.158
-117.174
-117.192
-117.211
-117.233
-117.129
-117.13
-117.13
-117.13
-117.131
-117.131
-117.131
-117.132
-117.132
-117.132
-117.133
-117.133
-117.134
-117.135
-117.136
-117.138
-117.14
-117.144
-117.149
-117.156
-117.165
-117.176
-117.189
-117.203
-117.218
-117.235
-117.253
-117.272
-117.195
-117.196
-117.196
-117.196
-117.197
-117.197
-117.197
-117.198
-117.198
-117.198
-117.199
-117.2
-117.2
-117.201
-117.202
-117.203
-117.205
-117.208
-117.212
-117.218
-117.226
-117.236
-117.248
-117.261
-117.275
-117.289
-117.305
-117.32
-160.986
-160.986
-160.986
-160.987
-160.988
-160.989
-160.991
-160.994
-160.997
-161.001
-161.005
-161.011
-161.018
-161.026
-161.035
-161.047
-161.061
-161.078
-161.097
-161.121
-161.148
-161.18
-161.216
-161.257
-161.304
-161.357
-161.42
-161.485
-161.945
-161.945
-161.946
-161.946
-161.947
-161.949
-161.951
-161.954
-161.957
-161.962
-161.968
-161.975
-161.983
-161.993
-162.005
-162.019
-162.036
-162.055
-162.078
-162.104
-162.135
-162.17
-162.21
-162.255
-162.307
-162.364
-162.43
-162.51
-162.791
-162.79
-162.791
-162.791
-162.792
-162.794
-162.796
-162.799
-162.803
-162.808
-162.814
-162.821
-162.83
-162.841
-162.854
-162.869
-162.887
-162.909
-162.933
-162.961
-162.994
-163.03
-163.072
-163.119
-163.171
-163.23
-163.293
-163.364
-163.474
-163.473
-163.473
-163.474
-163.475
-163.477
-163.479
-163.482
-163.486
-163.491
-163.497
-163.505
-163.514
-163.525
-163.538
-163.553
-163.572
-163.593
-163.619
-163.648
-163.682
-163.72
-163.763
-163.812
-163.867
-163.929
-163.997
-164.067
-164
-164
-164
-164.001
-164.002
-164.004
-164.007
-164.011
-164.016
-164.022
-164.029
-164.037
-164.048
-164.06
-164.074
-164.092
-164.112
-164.137
-164.165
-164.198
-164.236
-164.28
-164.33
-164.387
-164.451
-164.523
-164.605
-164.691
-164.309
-164.309
-164.309
-164.31
-164.312
-164.315
-164.318
-164.323
-164.329
-164.336
-164.345
-164.355
-164.367
-164.381
-164.397
-164.416
-164.438
-164.464
-164.494
-164.528
-164.567
-164.611
-164.662
-164.72
-164.785
-164.856
-164.935
-165.016
-164.418
-164.418
-164.418
-164.419
-164.422
-164.426
-164.431
-164.438
-164.446
-164.456
-164.467
-164.48
-164.495
-164.514
-164.535
-164.559
-164.587
-164.619
-164.654
-164.694
-164.74
-164.79
-164.844
-164.903
-164.967
-165.039
-165.12
-165.204
-4.17899
-4.17899
-4.17899
-4.17899
-4.17899
-4.179
-4.17901
-4.17902
-4.17903
-4.17906
-4.17909
-4.17913
-4.17919
-4.17926
-4.17934
-4.17945
-4.17959
-4.17975
-4.17995
-4.18018
-4.18046
-4.18079
-4.18118
-4.18163
-4.18214
-4.18274
-4.18334
-4.1842
-4.17658
-4.17658
-4.17658
-4.17658
-4.17658
-4.17659
-4.17659
-4.1766
-4.17662
-4.17664
-4.17667
-4.17671
-4.17676
-4.17683
-4.17692
-4.17702
-4.17715
-4.17731
-4.17751
-4.17774
-4.17803
-4.17837
-4.17878
-4.17927
-4.17986
-4.18054
-4.18138
-4.1827
-4.17446
-4.17446
-4.17446
-4.17446
-4.17446
-4.17446
-4.17447
-4.17447
-4.17448
-4.1745
-4.17451
-4.17454
-4.17457
-4.17461
-4.17465
-4.17471
-4.17478
-4.17486
-4.17495
-4.17506
-4.17519
-4.17533
-4.17549
-4.17566
-4.17585
-4.17605
-4.17633
-4.17646
-4.17265
-4.17265
-4.17264
-4.17264
-4.17264
-4.17264
-4.17264
-4.17265
-4.17265
-4.17267
-4.17268
-4.17271
-4.17274
-4.17278
-4.17283
-4.1729
-4.17298
-4.17307
-4.17319
-4.17332
-4.17348
-4.17367
-4.17389
-4.17413
-4.17441
-4.17473
-4.17506
-4.1754
-4.17069
-4.17068
-4.17068
-4.17067
-4.17067
-4.17066
-4.17066
-4.17066
-4.17066
-4.17067
-4.17067
-4.17069
-4.1707
-4.17072
-4.17075
-4.17079
-4.17084
-4.17089
-4.17096
-4.17105
-4.17115
-4.17127
-4.17141
-4.17158
-4.17178
-4.17201
-4.17228
-4.17259
-4.16909
-4.16908
-4.16907
-4.16906
-4.16906
-4.16905
-4.16904
-4.16904
-4.16904
-4.16904
-4.16904
-4.16904
-4.16905
-4.16906
-4.16908
-4.16911
-4.16914
-4.16918
-4.16922
-4.16928
-4.16935
-4.16943
-4.16953
-4.16963
-4.16975
-4.16987
-4.17001
-4.17012
-4.16686
-4.16685
-4.16685
-4.16684
-4.16683
-4.16683
-4.16682
-4.16682
-4.16681
-4.16681
-4.16682
-4.16682
-4.16683
-4.16684
-4.16687
-4.16689
-4.16693
-4.16698
-4.16704
-4.16712
-4.16722
-4.16733
-4.16747
-4.16764
-4.16784
-4.16807
-4.16834
-4.16864
-4.16471
-4.1647
-4.16469
-4.16469
-4.16468
-4.16467
-4.16467
-4.16467
-4.16466
-4.16466
-4.16467
-4.16467
-4.16468
-4.1647
-4.16472
-4.16475
-4.16479
-4.16484
-4.1649
-4.16498
-4.16507
-4.16519
-4.16533
-4.1655
-4.1657
-4.16594
-4.16623
-4.16651
-4.16217
-4.16216
-4.16216
-4.16215
-4.16214
-4.16214
-4.16213
-4.16213
-4.16213
-4.16213
-4.16213
-4.16213
-4.16214
-4.16216
-4.16217
-4.1622
-4.16224
-4.16228
-4.16234
-4.16241
-4.1625
-4.16261
-4.16274
-4.1629
-4.16308
-4.1633
-4.16359
-4.16388
-4.15946
-4.15945
-4.15945
-4.15944
-4.15943
-4.15943
-4.15943
-4.15942
-4.15942
-4.15942
-4.15943
-4.15944
-4.15945
-4.15947
-4.15949
-4.15952
-4.15957
-4.15962
-4.15969
-4.15977
-4.15987
-4.15998
-4.16012
-4.16026
-4.16046
-4.16074
-4.16112
-4.16141
-4.15673
-4.15672
-4.15672
-4.15671
-4.15671
-4.1567
-4.1567
-4.1567
-4.15671
-4.15671
-4.15672
-4.15674
-4.15677
-4.1568
-4.15685
-4.15691
-4.15699
-4.15709
-4.15722
-4.15738
-4.15759
-4.15784
-4.15814
-4.15854
-4.15913
-4.16
-4.16112
-4.1623
-203.064
-203.064
-203.063
-203.063
-203.064
-203.066
-203.069
-203.074
-203.08
-203.087
-203.096
-203.106
-203.119
-203.133
-203.15
-203.169
-203.191
-203.216
-203.244
-203.276
-203.311
-203.352
-203.396
-203.446
-203.501
-203.562
-203.629
-203.7
-201.86
-201.859
-201.859
-201.859
-201.86
-201.862
-201.865
-201.87
-201.876
-201.883
-201.893
-201.904
-201.917
-201.932
-201.95
-201.971
-201.994
-202.02
-202.05
-202.084
-202.122
-202.165
-202.212
-202.266
-202.325
-202.391
-202.465
-202.543
-200.523
-200.522
-200.521
-200.522
-200.523
-200.525
-200.528
-200.533
-200.539
-200.547
-200.557
-200.569
-200.584
-200.6
-200.619
-200.64
-200.665
-200.693
-200.725
-200.761
-200.801
-200.846
-200.897
-200.953
-201.017
-201.086
-201.166
-201.246
-199.051
-199.05
-199.05
-199.05
-199.051
-199.053
-199.056
-199.061
-199.068
-199.076
-199.086
-199.099
-199.113
-199.13
-199.149
-199.171
-199.196
-199.224
-199.255
-199.291
-199.331
-199.375
-199.424
-199.478
-199.539
-199.605
-199.68
-199.754
-197.46
-197.459
-197.459
-197.459
-197.46
-197.462
-197.465
-197.471
-197.478
-197.487
-197.498
-197.511
-197.527
-197.545
-197.566
-197.59
-197.616
-197.647
-197.681
-197.719
-197.762
-197.81
-197.863
-197.922
-197.989
-198.061
-198.145
-198.229
-7.36331
-7.36326
-7.3632
-7.36316
-7.36315
-7.36318
-7.36326
-7.36343
-7.36372
-7.36416
-7.36483
-7.36577
-7.36708
-7.36884
-7.37118
-7.37422
-7.37809
-7.38296
-7.389
-7.39637
-7.40525
-7.41581
-7.42821
-7.44263
-7.4592
-7.47803
-7.49945
-7.52265
-7.37646
-7.37641
-7.37635
-7.37632
-7.37631
-7.37634
-7.37644
-7.37662
-7.37692
-7.37739
-7.37808
-7.37906
-7.38039
-7.38219
-7.38456
-7.38761
-7.39149
-7.39634
-7.40232
-7.40958
-7.41828
-7.42859
-7.44065
-7.45459
-7.47056
-7.48865
-7.50896
-7.53137
-7.38927
-7.38922
-7.38916
-7.38913
-7.38913
-7.38917
-7.38927
-7.38947
-7.3898
-7.39029
-7.39101
-7.39202
-7.39341
-7.39525
-7.39766
-7.40076
-7.40467
-7.40955
-7.41552
-7.42275
-7.43138
-7.44155
-7.4534
-7.46706
-7.48265
-7.50021
-7.51994
-7.54184
-7.40046
-7.40041
-7.40035
-7.40033
-7.40033
-7.40038
-7.40049
-7.4007
-7.40105
-7.40157
-7.40232
-7.40337
-7.40479
-7.40668
-7.40914
-7.41228
-7.41624
-7.42114
-7.42713
-7.43435
-7.44294
-7.45305
-7.4648
-7.47832
-7.49373
-7.51111
-7.53067
-7.55183
-7.41089
-7.41084
-7.41079
-7.41076
-7.41077
-7.41082
-7.41095
-7.41118
-7.41154
-7.41208
-7.41285
-7.41392
-7.41537
-7.41729
-7.41977
-7.42292
-7.42688
-7.43176
-7.4377
-7.44483
-7.45329
-7.46321
-7.47471
-7.48791
-7.50291
-7.51982
-7.53865
-7.55959
-7.41984
-7.41979
-7.41974
-7.41972
-7.41973
-7.41979
-7.41993
-7.42017
-7.42054
-7.4211
-7.4219
-7.42299
-7.42446
-7.4264
-7.42889
-7.43205
-7.43599
-7.44084
-7.44672
-7.45375
-7.46207
-7.47179
-7.48302
-7.49588
-7.51047
-7.52681
-7.54512
-7.5654
-7.42774
-7.4277
-7.42765
-7.42763
-7.42765
-7.42772
-7.42786
-7.42811
-7.4285
-7.42907
-7.42988
-7.43099
-7.43248
-7.43442
-7.43692
-7.44007
-7.44398
-7.44877
-7.45457
-7.46148
-7.46962
-7.47912
-7.49006
-7.50256
-7.51669
-7.53252
-7.55026
-7.56942
-7.43431
-7.43427
-7.43422
-7.43421
-7.43423
-7.4343
-7.43446
-7.43471
-7.43512
-7.4357
-7.43653
-7.43766
-7.43917
-7.44112
-7.44363
-7.44678
-7.45068
-7.45544
-7.46117
-7.468
-7.47602
-7.48534
-7.49607
-7.50829
-7.52208
-7.53753
-7.55471
-7.57329
-7.43968
-7.43963
-7.43959
-7.43958
-7.43961
-7.43969
-7.43985
-7.44012
-7.44053
-7.44113
-7.44197
-7.44312
-7.44464
-7.44661
-7.44912
-7.45226
-7.45614
-7.46087
-7.46655
-7.47328
-7.48119
-7.49036
-7.50089
-7.51288
-7.5264
-7.54153
-7.55831
-7.57681
-129.753
-129.752
-129.751
-129.75
-129.749
-129.749
-129.751
-129.754
-129.76
-129.768
-129.78
-129.795
-129.814
-129.837
-129.863
-129.891
-129.924
-129.961
-130.001
-130.046
-130.095
-130.149
-130.209
-130.277
-130.357
-130.435
-130.553
-130.637
-128.538
-128.538
-128.537
-128.536
-128.536
-128.536
-128.538
-128.541
-128.548
-128.559
-128.574
-128.595
-128.622
-128.656
-128.694
-128.739
-128.787
-128.841
-128.898
-128.961
-129.031
-129.108
-129.194
-129.29
-129.395
-129.515
-129.657
-129.767
-4.15325
-4.15325
-4.15325
-4.15324
-4.15324
-4.15323
-4.15323
-4.15323
-4.15322
-4.15322
-4.15322
-4.15322
-4.15322
-4.15322
-4.15322
-4.15322
-4.15322
-4.15323
-4.15324
-4.15324
-4.15326
-4.15327
-4.15328
-4.1533
-4.15331
-4.15329
-4.15326
-4.15332
-4.15047
-4.15047
-4.15046
-4.15046
-4.15045
-4.15045
-4.15045
-4.15044
-4.15044
-4.15044
-4.15044
-4.15045
-4.15045
-4.15046
-4.15047
-4.15048
-4.1505
-4.15052
-4.15055
-4.15059
-4.15063
-4.15067
-4.15071
-4.15076
-4.1508
-4.15081
-4.15081
-4.15071
-4.14675
-4.14674
-4.14674
-4.14673
-4.14673
-4.14673
-4.14673
-4.14672
-4.14672
-4.14672
-4.14673
-4.14673
-4.14674
-4.14675
-4.14677
-4.14679
-4.14682
-4.14685
-4.1469
-4.14696
-4.14703
-4.14712
-4.14723
-4.14736
-4.14753
-4.14773
-4.14799
-4.14831
-4.1436
-4.14359
-4.14359
-4.14358
-4.14358
-4.14358
-4.14357
-4.14357
-4.14357
-4.14357
-4.14357
-4.14356
-4.14357
-4.14357
-4.14357
-4.14358
-4.14359
-4.1436
-4.14362
-4.14364
-4.14367
-4.14371
-4.14375
-4.1438
-4.14386
-4.14393
-4.14404
-4.14409
-4.13972
-4.13972
-4.13972
-4.13971
-4.13971
-4.13971
-4.1397
-4.1397
-4.1397
-4.1397
-4.13971
-4.13971
-4.13972
-4.13973
-4.13974
-4.13976
-4.13979
-4.13982
-4.13986
-4.13991
-4.13996
-4.14003
-4.1401
-4.14018
-4.14026
-4.14034
-4.14048
-4.14054
-4.13632
-4.13632
-4.13632
-4.13631
-4.13631
-4.13631
-4.13631
-4.13631
-4.13631
-4.13632
-4.13633
-4.13634
-4.13635
-4.13638
-4.13641
-4.13645
-4.13651
-4.13658
-4.13667
-4.13678
-4.13692
-4.13709
-4.13731
-4.13757
-4.1379
-4.13833
-4.13899
-4.13972
-4.13204
-4.13204
-4.13203
-4.13203
-4.13203
-4.13203
-4.13202
-4.13202
-4.13202
-4.13202
-4.13201
-4.13201
-4.13201
-4.13201
-4.13201
-4.132
-4.132
-4.132
-4.132
-4.132
-4.13199
-4.13198
-4.13197
-4.13196
-4.13193
-4.1319
-4.13182
-4.13177
-4.12855
-4.12855
-4.12854
-4.12854
-4.12854
-4.12854
-4.12853
-4.12853
-4.12854
-4.12854
-4.12854
-4.12855
-4.12856
-4.12858
-4.12859
-4.12862
-4.12865
-4.12869
-4.12874
-4.1288
-4.12887
-4.12896
-4.12905
-4.12916
-4.12928
-4.12939
-4.1295
-4.12954
-4.12418
-4.12418
-4.12417
-4.12417
-4.12417
-4.12417
-4.12417
-4.12417
-4.12417
-4.12417
-4.12418
-4.12419
-4.1242
-4.12421
-4.12423
-4.12426
-4.12429
-4.12433
-4.12439
-4.12446
-4.12454
-4.12465
-4.12478
-4.12496
-4.12518
-4.12547
-4.12585
-4.1264
-4.12023
-4.12023
-4.12023
-4.12022
-4.12022
-4.12022
-4.12022
-4.12021
-4.12021
-4.12021
-4.1202
-4.12019
-4.12018
-4.12017
-4.12016
-4.12014
-4.12012
-4.12009
-4.12006
-4.12001
-4.11996
-4.11989
-4.1198
-4.1197
-4.11956
-4.11938
-4.11918
-4.11883
-4.11612
-4.11612
-4.11612
-4.11612
-4.11611
-4.11611
-4.11611
-4.11611
-4.11611
-4.11611
-4.11612
-4.11612
-4.11613
-4.11614
-4.11615
-4.11616
-4.11618
-4.11621
-4.11624
-4.11628
-4.11633
-4.11638
-4.11645
-4.11652
-4.11661
-4.1167
-4.11679
-4.11678
-132.35
-132.35
-132.35
-132.351
-132.351
-132.352
-132.353
-132.353
-132.354
-132.356
-132.357
-132.359
-132.361
-132.365
-132.37
-132.377
-132.385
-132.396
-132.41
-132.427
-132.448
-132.474
-132.506
-132.544
-132.59
-132.646
-132.711
-132.78
-132.533
-132.533
-132.533
-132.534
-132.534
-132.534
-132.535
-132.535
-132.536
-132.537
-132.538
-132.54
-132.542
-132.546
-132.551
-132.557
-132.566
-132.576
-132.59
-132.606
-132.627
-132.652
-132.683
-132.721
-132.767
-132.822
-132.886
-132.961
-132.705
-132.705
-132.705
-132.705
-132.705
-132.705
-132.705
-132.705
-132.705
-132.705
-132.706
-132.707
-132.709
-132.712
-132.716
-132.721
-132.727
-132.735
-132.745
-132.757
-132.773
-132.791
-132.814
-132.841
-132.874
-132.914
-132.96
-133.014
-129.191
-129.191
-129.192
-129.192
-129.191
-129.191
-129.192
-129.193
-129.195
-129.197
-129.201
-129.206
-129.211
-129.217
-129.223
-129.228
-129.232
-129.236
-129.237
-129.236
-129.233
-129.226
-129.215
-129.199
-129.177
-129.144
-129.091
-129.036
-129.611
-129.611
-129.612
-129.612
-129.613
-129.613
-129.613
-129.614
-129.616
-129.618
-129.62
-129.623
-129.626
-129.628
-129.63
-129.632
-129.633
-129.632
-129.63
-129.627
-129.621
-129.612
-129.6
-129.583
-129.56
-129.532
-129.495
-129.449
-173.632
-173.632
-173.633
-173.633
-173.633
-173.633
-173.633
-173.633
-173.634
-173.635
-173.637
-173.641
-173.646
-173.653
-173.663
-173.676
-173.692
-173.711
-173.734
-173.761
-173.79
-173.822
-173.856
-173.893
-173.933
-173.976
-174.02
-174.061
-175.398
-175.398
-175.398
-175.399
-175.399
-175.4
-175.4
-175.401
-175.402
-175.403
-175.404
-175.406
-175.41
-175.414
-175.421
-175.429
-175.441
-175.455
-175.472
-175.493
-175.519
-175.548
-175.58
-175.616
-175.656
-175.7
-175.748
-175.795
-177.156
-177.157
-177.157
-177.158
-177.159
-177.16
-177.161
-177.162
-177.163
-177.165
-177.167
-177.17
-177.174
-177.178
-177.184
-177.191
-177.2
-177.212
-177.225
-177.242
-177.261
-177.283
-177.309
-177.338
-177.37
-177.407
-177.446
-177.484
-178.877
-178.878
-178.879
-178.879
-178.88
-178.881
-178.882
-178.883
-178.885
-178.887
-178.89
-178.893
-178.896
-178.901
-178.907
-178.913
-178.921
-178.931
-178.942
-178.955
-178.97
-178.988
-179.008
-179.031
-179.058
-179.085
-179.119
-179.178
-180.609
-180.61
-180.61
-180.611
-180.612
-180.613
-180.614
-180.616
-180.618
-180.621
-180.625
-180.629
-180.635
-180.641
-180.649
-180.658
-180.669
-180.682
-180.697
-180.714
-180.734
-180.757
-180.784
-180.814
-180.85
-180.889
-180.933
-180.987
-127.859
-127.859
-127.859
-127.859
-127.859
-127.86
-127.863
-127.868
-127.876
-127.89
-127.908
-127.93
-127.956
-127.985
-128.014
-128.044
-128.075
-128.109
-128.145
-128.183
-128.226
-128.274
-128.325
-128.379
-128.436
-128.491
-128.54
-128.648
-129.022
-129.022
-129.023
-129.024
-129.024
-129.025
-129.026
-129.027
-129.027
-129.027
-129.027
-129.027
-129.026
-129.025
-129.025
-129.024
-129.023
-129.023
-129.024
-129.026
-129.029
-129.033
-129.039
-129.048
-129.057
-129.073
-129.086
-129.145
-127.887
-127.888
-127.889
-127.889
-127.889
-127.89
-127.891
-127.894
-127.9
-127.908
-127.92
-127.933
-127.948
-127.963
-127.977
-127.99
-128.004
-128.018
-128.033
-128.047
-128.062
-128.081
-128.098
-128.111
-128.117
-128.108
-128.104
-128.117
-128.185
-128.185
-128.186
-128.187
-128.187
-128.187
-128.186
-128.186
-128.185
-128.184
-128.183
-128.182
-128.182
-128.182
-128.183
-128.185
-128.187
-128.189
-128.189
-128.188
-128.186
-128.182
-128.175
-128.166
-128.153
-128.136
-128.13
-128.107
-149.282
-149.282
-149.281
-149.28
-149.279
-149.277
-149.275
-149.273
-149.271
-149.269
-149.267
-149.267
-149.266
-149.267
-149.27
-149.274
-149.28
-149.288
-149.299
-149.309
-149.317
-149.322
-149.326
-149.327
-149.337
-149.353
-149.397
-149.466
-148.533
-148.533
-148.533
-148.531
-148.529
-148.527
-148.523
-148.519
-148.514
-148.508
-148.502
-148.495
-148.488
-148.48
-148.471
-148.462
-148.453
-148.443
-148.432
-148.42
-148.403
-148.374
-148.33
-148.269
-148.194
-148.1
-148.002
-147.922
-148.12
-148.12
-148.12
-148.118
-148.116
-148.112
-148.107
-148.1
-148.093
-148.084
-148.073
-148.06
-148.046
-148.029
-148.011
-147.99
-147.967
-147.94
-147.906
-147.865
-147.813
-147.747
-147.657
-147.541
-147.397
-147.232
-147.01
-146.836
-148.01
-148.011
-148.011
-148.01
-148.009
-148.006
-148.003
-148
-147.996
-147.991
-147.985
-147.979
-147.972
-147.965
-147.958
-147.952
-147.947
-147.94
-147.929
-147.912
-147.887
-147.851
-147.803
-147.741
-147.657
-147.566
-147.416
-147.317
-131.495
-131.496
-131.497
-131.498
-131.499
-131.499
-131.498
-131.496
-131.492
-131.485
-131.476
-131.465
-131.452
-131.435
-131.414
-131.389
-131.36
-131.328
-131.292
-131.254
-131.213
-131.17
-131.126
-131.08
-131.033
-130.987
-130.932
-130.903
-129.09
-129.089
-129.088
-129.087
-129.087
-129.086
-129.088
-129.09
-129.096
-129.104
-129.117
-129.134
-129.156
-129.183
-129.216
-129.253
-129.295
-129.34
-129.39
-129.444
-129.504
-129.569
-129.641
-129.721
-129.809
-129.903
-130.027
-130.117
-128.354
-128.355
-128.355
-128.356
-128.357
-128.358
-128.358
-128.359
-128.36
-128.361
-128.363
-128.365
-128.367
-128.37
-128.374
-128.378
-128.383
-128.389
-128.395
-128.402
-128.409
-128.417
-128.425
-128.434
-128.442
-128.453
-128.457
-128.477
-128.101
-128.1
-128.1
-128.099
-128.099
-128.1
-128.102
-128.106
-128.115
-128.127
-128.145
-128.169
-128.199
-128.234
-128.273
-128.317
-128.364
-128.414
-128.469
-128.528
-128.593
-128.666
-128.747
-128.836
-128.936
-129.051
-129.168
-129.293
-132.439
-132.44
-132.443
-132.449
-132.456
-132.462
-132.465
-132.461
-132.449
-132.427
-132.398
-132.364
-132.327
-132.282
-132.225
-132.157
-132.079
-131.995
-131.907
-131.815
-131.719
-131.618
-131.514
-131.403
-131.286
-131.162
-131.029
-130.897
-132.095
-132.094
-132.093
-132.094
-132.095
-132.096
-132.098
-132.099
-132.099
-132.098
-132.091
-132.076
-132.05
-132.011
-131.959
-131.896
-131.823
-131.748
-131.672
-131.594
-131.514
-131.428
-131.338
-131.24
-131.134
-131.013
-130.889
-130.742
-626.839
-626.763
-626.742
-626.912
-627.381
-628.306
-629.292
-628.771
-624.871
-618.501
-611.073
-602.759
-593.663
-584.187
-574.516
-564.608
-554.561
-544.469
-534.34
-524.201
-514.073
-503.912
-493.763
-483.573
-473.425
-463.252
-452.969
-443.013
-592.85
-592.687
-592.459
-592.242
-592.082
-591.947
-591.595
-590.488
-587.851
-583.233
-577.105
-570.24
-563.236
-556.327
-549.378
-542.224
-534.816
-527.131
-519.176
-510.965
-502.524
-493.871
-485.051
-476
-466.855
-457.373
-447.89
-438.118
-594.339
-594.278
-594.161
-593.935
-593.382
-592.029
-589.749
-586.966
-583.611
-579.202
-573.864
-567.934
-561.586
-554.916
-547.968
-540.764
-533.297
-525.566
-517.577
-509.347
-500.897
-492.239
-483.387
-474.317
-465.087
-455.548
-446.035
-435.932
-615.198
-615.169
-615.085
-614.758
-613.875
-612.012
-608.847
-604.248
-598.463
-591.923
-584.936
-577.677
-570.2
-562.552
-554.731
-546.731
-538.543
-530.166
-521.613
-512.892
-504.018
-494.993
-485.831
-476.505
-467.059
-457.42
-447.771
-437.735
-625.803
-625.762
-625.555
-624.873
-623.304
-620.428
-616.146
-610.606
-604.083
-596.916
-589.359
-581.551
-573.576
-565.445
-557.155
-548.699
-540.073
-531.273
-522.307
-513.183
-503.909
-494.485
-484.912
-475.169
-465.296
-455.215
-445.063
-434.732
-637.452
-637.305
-636.693
-635.328
-632.915
-629.07
-623.845
-617.492
-610.357
-602.731
-594.794
-586.664
-578.368
-569.918
-561.309
-552.536
-543.595
-534.485
-525.218
-515.802
-506.251
-496.568
-486.758
-476.812
-466.761
-456.538
-446.349
-435.854
-646.737
-646.196
-644.827
-642.602
-639.396
-634.742
-628.711
-621.643
-613.884
-605.713
-597.3
-588.716
-579.989
-571.126
-562.114
-552.948
-543.616
-534.117
-524.461
-514.654
-504.712
-494.628
-484.405
-474.037
-463.532
-452.867
-442.148
-431.298
-648.127
-647.715
-646.661
-644.475
-640.751
-635.567
-629.101
-621.688
-613.671
-605.301
-596.716
-587.978
-579.104
-570.101
-560.957
-551.665
-542.214
-532.605
-522.856
-512.972
-502.972
-492.852
-482.623
-472.283
-461.838
-451.276
-440.761
-429.935
-644.577
-644.293
-643.132
-640.644
-636.695
-631.238
-624.526
-616.918
-608.745
-600.246
-591.547
-582.698
-573.72
-564.617
-555.369
-545.964
-536.382
-526.628
-516.717
-506.655
-496.459
-486.123
-475.656
-465.052
-454.304
-443.455
-432.537
-421.501
-130.528
-130.527
-130.526
-130.524
-130.524
-130.525
-130.526
-130.53
-130.535
-130.541
-130.549
-130.558
-130.568
-130.578
-130.59
-130.604
-130.617
-130.628
-130.64
-130.653
-130.669
-130.688
-130.712
-130.739
-130.777
-130.813
-130.873
-130.94
-128.574
-128.575
-128.576
-128.576
-128.577
-128.576
-128.575
-128.573
-128.57
-128.565
-128.558
-128.551
-128.541
-128.53
-128.518
-128.504
-128.489
-128.472
-128.454
-128.434
-128.413
-128.39
-128.363
-128.33
-128.289
-128.238
-128.191
-128.122
-131.341
-131.339
-131.338
-131.338
-131.339
-131.34
-131.343
-131.347
-131.35
-131.353
-131.354
-131.353
-131.349
-131.341
-131.327
-131.309
-131.286
-131.26
-131.231
-131.202
-131.172
-131.144
-131.117
-131.089
-131.061
-131.026
-131.006
-130.982
-149.367
-149.368
-149.369
-149.37
-149.371
-149.373
-149.374
-149.376
-149.378
-149.381
-149.385
-149.389
-149.394
-149.4
-149.406
-149.413
-149.421
-149.431
-149.442
-149.458
-149.48
-149.512
-149.56
-149.627
-149.709
-149.802
-149.916
-150.049
-150.217
-150.218
-150.218
-150.219
-150.22
-150.222
-150.223
-150.224
-150.226
-150.228
-150.229
-150.231
-150.233
-150.234
-150.236
-150.238
-150.24
-150.244
-150.25
-150.26
-150.274
-150.296
-150.331
-150.382
-150.448
-150.524