/*--------------------------------*- C++ -*----------------------------------*\
| =========                 |                                                 |
| \\      /  F ield         | OpenFOAM: The Open Source CFD Toolbox           |
|  \\    /   O peration     | Version:  2412                                  |
|   \\  /    A nd           | Website:  www.openfoam.com                      |
|    \\/     M anipulation  |                                                 |
\*---------------------------------------------------------------------------*/
FoamFile
{
    version     2.0;
    format      ascii;
    arch        "LSB;label=32;scalar=64";
    class       volVectorField;
    location    "2500";
    object      wallShearStress;
}
// * * * * * * * * * * * * * * * * * * * * * * * * * * * * * * * * * * * * * //

dimensions      [0 2 -2 0 0 0 0];

internalField   uniform (0 0 0);

boundaryField
{
    frontAndBack
    {
        type            empty;
    }
    symmetry
    {
        type            symmetryPlane;
    }
    outlet
    {
        type            calculated;
        value           uniform (0 0 0);
    }
    wall
    {
        type            calculated;
        value           nonuniform List<vector> 
1155
(
(0.0229808 -0.00136589 -1.94379e-23)
(0.0227764 -0.00132425 2.4823e-21)
(0.0226259 -0.00128734 9.68554e-24)
(0.0224731 -0.00124961 2.47113e-21)
(0.0222965 -0.00121149 2.90669e-27)
(0.0221499 -0.00117583 -2.45077e-21)
(0.0219976 -0.00113988 -2.04472e-26)
(0.0218593 -0.00110491 -9.57731e-24)
(0.0216652 -0.00106706 -2.45426e-21)
(0.0215092 -0.00103368 2.44947e-21)
(0.0213737 -0.000999541 -3.67342e-40)
(-0.21283 -0.000184474 0)
(-0.204096 -0.000188697 0)
(-0.195033 -0.000195403 0)
(-0.185954 -0.000181196 0)
(-0.177503 -0.000173425 0)
(-0.169352 -0.00016616 0)
(0.408952 9.47621e-05 0)
(0.406804 0.000136387 0)
(0.403424 0.000187049 0)
(0.398583 0.000214708 0)
(0.393026 0.000227469 0)
(0.326038 -0.000393465 0)
(0.344914 -0.000450696 0)
(0.364115 -0.000451794 0)
(0.383107 -0.000486548 0)
(0.401313 -0.000439258 0)
(0.417319 -0.00039635 0)
(-0.29944 -0.000139374 0)
(-0.292301 -0.000168433 0)
(-0.284377 -0.000167641 0)
(-0.276915 -0.00017093 0)
(-0.269317 -0.000171495 0)
(-0.261902 -0.000171382 0)
(0.239456 -0.0279728 -1.78129e-19)
(0.232854 -0.0274839 1.79197e-19)
(0.223059 -0.0265473 -6.82299e-25)
(0.21006 -0.0252448 3.61149e-19)
(0.196212 -0.023774 7.26878e-19)
(0.180145 -0.0219916 -7.13013e-22)
(0.160947 -0.0197381 3.39212e-24)
(0.0169775 -9.2075e-05 -5.80496e-22)
(0.0170012 -7.13685e-05 -5.73972e-42)
(0.0169666 -5.11175e-05 -1.87796e-39)
(0.0170201 -3.22469e-05 -7.2593e-23)
(0.0170961 -1.27181e-05 3.62786e-23)
(0.0172544 -4.14501e-06 0)
(0.0174397 -3.61083e-06 0)
(0.017583 -3.65772e-06 0)
(0.0177515 -3.2591e-06 0)
(0.0178687 -3.25113e-06 0)
(0.0180421 -3.11165e-06 0)
(0.148367 0.000519818 0)
(0.125563 0.000506933 0)
(0.102092 0.000506099 0)
(0.0780091 0.000491869 0)
(0.0528648 0.000477751 0)
(0.0145385 -0.00961663 2.38979e-25)
(0.0156354 -0.0100943 -1.28196e-22)
(0.0167194 -0.0105441 -1.28622e-22)
(0.0178327 -0.0109919 -2.41053e-26)
(0.0189014 -0.0113946 -3.28692e-20)
(0.019979 -0.0117858 -4.70198e-38)
(0.0210148 -0.0121376 3.30723e-20)
(0.0220462 -0.0124736 1.53216e-25)
(0.0230508 -0.0127818 -3.3125e-20)
(-0.313167 0.000249563 0)
(-0.330324 -4.57283e-05 0)
(0.018113 -1.55621e-06 0)
(0.0182146 -2.85677e-06 0)
(0.0183263 -1.73587e-06 0)
(0.0183966 -2.218e-06 0)
(0.0184927 -1.89734e-06 0)
(0.0185874 -2.13394e-06 0)
(0.0186418 -8.02319e-07 0)
(0.0186953 -2.08326e-06 0)
(0.0187861 -7.21604e-07 0)
(0.0187783 -8.50638e-07 0)
(0.0188555 -1.3738e-06 0)
(-0.177749 9.43983e-05 0)
(-0.180724 3.26829e-05 0)
(-0.181361 -3.73975e-05 0)
(-0.241701 -0.000420274 0)
(-0.223352 -0.000425955 0)
(0.324662 -0.000111265 0)
(0.331393 -0.000140514 0)
(0.339621 -0.000159689 0)
(0.349103 -0.000221966 0)
(0.359661 -0.000200256 0)
(-0.315343 -0.000692527 0)
(-0.244219 -0.000118346 0)
(-0.296542 -0.00104675 0)
(-0.266648 -0.000648718 0)
(-0.416922 -0.000442831 0)
(-0.401472 -0.000710179 0)
(-0.378717 -0.000813794 0)
(-0.356095 -0.000846139 0)
(-0.155709 -0.000235843 0)
(-0.324684 8.21195e-05 0)
(-0.268373 -0.000323341 0)
(-0.329884 -0.000314987 0)
(-0.176838 0.000788025 0)
(-0.215691 0.00123527 0)
(0.0641939 -0.598147 3.67342e-40)
(0.0193467 -0.353696 -7.37081e-23)
(0.00694863 0.0598578 -7.35759e-19)
(-0.0851148 -0.381383 -1.06978e-20)
(0.155403 0.418435 -1.54617e-22)
(0.456178 1.01454 2.79103e-18)
(0.986154 1.58747 1.5486e-18)
(1.41152 1.76955 4.5013e-22)
(1.78441 2.02341 5.47917e-18)
(-0.293349 0.000539117 0)
(-0.242043 -0.000374142 0)
(-0.261968 0.000972855 0)
(-0.001356 -0.000437785 0)
(0.0136187 -0.000318711 0)
(0.0213718 -0.000120728 0)
(0.0308382 -0.000330909 0)
(0.0452141 -0.000290914 0)
(-0.228396 0.000239077 0)
(-0.219173 -0.000405014 0)
(-0.240582 0.000842382 0)
(-0.177487 -0.00051919 0)
(-0.227533 -6.53001e-05 0)
(-0.200288 -0.000533947 0)
(-0.148861 0.000457878 0)
(-0.269786 5.27185e-05 0)
(-0.252516 -0.000197611 0)
(-0.37024 0.000904177 0)
(-0.402011 0.000748719 0)
(-0.427852 0.00035265 0)
(-0.439224 -8.22978e-05 0)
(-0.435616 -0.000401722 0)
(-0.329222 -0.00106782 0)
(-0.236142 -0.000155173 0)
(0.115506 -0.000391789 0)
(-0.307892 -0.000494116 0)
(-0.114563 0.000495538 0)
(0.0996208 -0.000258314 0)
(0.0591394 -0.000249971 0)
(-0.118611 -0.000167398 0)
(-0.110907 -0.000173232 0)
(-0.102437 -0.000138648 0)
(-0.0975739 8.29177e-05 0)
(-0.103052 0.000290889 0)
(-0.111868 0.000443042 0)
(0.0325961 -0.00487763 -2.33916e-23)
(0.0324473 -0.00479981 -1.1955e-20)
(0.0323102 -0.00472483 2.33087e-23)
(0.0321687 -0.00464976 -1.18699e-20)
(0.0320264 -0.00457466 0)
(0.0317945 -0.00448728 2.29774e-23)
(0.0315986 -0.00440914 -1.17672e-20)
(0.031438 -0.00433489 8.81621e-39)
(0.0312737 -0.00426219 9.80374e-27)
(0.0311389 -0.00419282 -6.84915e-40)
(0.148424 -0.0001597 0)
(0.156685 -0.000223177 0)
(0.173845 -0.000378129 0)
(0.192157 -0.000419911 0)
(0.206603 -0.000394022 0)
(0.223712 -0.000395295 0)
(-0.328035 -0.000307464 0)
(-0.317044 -0.000205905 0)
(-0.312363 0.000127284 0)
(-0.319549 0.000520568 0)
(-0.340079 0.000843626 0)
(-0.348788 0.000319346 0)
(-0.364653 0.000233529 0)
(-0.376679 0.000188246 0)
(-0.388473 0.000177939 0)
(-0.399073 0.00012723 0)
(-0.319028 -2.98142e-05 0)
(-0.319045 -3.7064e-05 0)
(-0.317673 3.07906e-05 0)
(-0.32027 0.000107981 0)
(-0.325253 0.000208248 0)
(0.00570724 -0.00488869 -6.42754e-20)
(0.0065958 -0.00546236 1.25979e-22)
(0.00739359 -0.00593332 1.28913e-19)
(0.0083898 -0.0065281 6.48574e-20)
(0.00926761 -0.0070019 6.48842e-20)
(0.0103174 -0.00757776 -3.26443e-20)
(0.0113226 -0.00808899 3.27148e-20)
(0.0123686 -0.00860619 3.25307e-20)
(0.0134497 -0.00912031 2.55499e-22)
(0.017613 -0.00761786 -3.79133e-22)
(0.272403 -0.0295716 3.77487e-22)
(0.618454 -0.0524014 4.08269e-22)
(0.794834 -0.0492529 -3.528e-22)
(0.374108 -0.00861651 0)
(-0.621414 0.0588726 -2.04734e-19)
(-0.428172 0.0238067 1.3796e-25)
(-0.101443 0.0206157 1.2404e-21)
(-0.0829992 0.0168565 -1.24079e-21)
(-0.0577887 0.0115823 -3.2028e-19)
(-0.0277568 0.00499622 2.5051e-21)
(0.00731403 -0.00278778 -1.25593e-21)
(0.0479909 -0.0116944 0)
(0.0901068 -0.0212107 -3.26555e-19)
(-0.422581 -0.000410838 0)
(-0.41087 -0.000241818 0)
(-0.404901 2.27065e-05 0)
(-0.408626 0.000344192 0)
(-0.423136 0.00055441 0)
(0.0218069 -2.3967e-06 0)
(0.0219176 -2.36119e-06 0)
(0.022032 -2.57297e-06 0)
(0.0221528 -2.54079e-06 0)
(0.0222725 -2.69847e-06 0)
(0.0224015 -2.75811e-06 0)
(0.0225309 -2.87926e-06 0)
(0.022668 -2.95809e-06 0)
(0.0228062 -3.04054e-06 0)
(0.0229509 -3.12511e-06 0)
(0.0230955 -3.1167e-06 0)
(0.0232423 -3.21824e-06 0)
(0.0233951 -3.32501e-06 0)
(0.0235529 -3.44654e-06 0)
(-0.0501411 -0.000378462 0)
(-0.0283313 -0.000284452 0)
(-0.0130196 -0.000446297 0)
(0.00617449 -0.000717263 0)
(0.028828 -0.000288899 0)
(0.0412619 -0.000334169 0)
(0.0313984 -0.0145432 1.10433e-25)
(0.0320496 -0.0146045 3.30241e-20)
(0.0326511 -0.0146419 3.29204e-20)
(0.0332382 -0.0146724 -3.28125e-20)
(0.0338081 -0.0146939 3.27642e-20)
(0.0343409 -0.0146982 6.41937e-23)
(0.0348386 -0.0146876 -2.44503e-36)
(0.0353068 -0.0146646 -3.26599e-20)
(0.0357342 -0.0146254 -3.27236e-20)
(0.0400236 -0.0125891 3.08681e-20)
(0.0400678 -0.0124519 0)
(0.0401033 -0.0123152 -1.03424e-26)
(0.0401329 -0.0121777 6.10932e-20)
(0.040077 -0.0120181 0)
(0.0401093 -0.0118892 -1.94431e-36)
(0.0401114 -0.0117507 9.81721e-38)
(0.0400959 -0.0116116 -5.87007e-23)
(0.0401023 -0.0114791 5.87023e-23)
(-0.00420244 -0.000737846 0)
(0.0190911 -0.000779204 0)
(0.0489951 -0.000909156 0)
(0.0842122 -0.000866704 0)
(0.0267332 -5.9821e-06 0)
(0.0270138 -6.17087e-06 0)
(0.0273071 -6.48514e-06 0)
(0.0276137 -6.7291e-06 0)
(0.0279323 -7.05692e-06 0)
(0.0282668 -7.35689e-06 0)
(0.0286147 -7.69831e-06 0)
(0.0289795 -8.04583e-06 0)
(0.0293603 -8.43181e-06 0)
(0.0297601 -8.83175e-06 0)
(0.0301783 -9.27372e-06 0)
(0.0306187 -9.74344e-06 0)
(0.0310798 -1.02318e-05 0)
(0.0315665 -1.0816e-05 0)
(0.0320797 -1.13871e-05 0)
(0.127473 0.000729763 0)
(0.0878586 0.00187641 0)
(0.0308618 0.00295076 0)
(-0.0600081 0.00180273 0)
(0.240955 -0.00042131 0)
(0.257843 -0.000397604 0)
(0.271574 -0.000334172 0)
(0.283085 -0.000300989 0)
(0.295359 -0.000326076 0)
(0.310014 -0.000354334 0)
(0.254413 0.000539614 0)
(0.234518 0.000512625 0)
(0.21395 0.000508414 0)
(0.192671 0.000512212 0)
(0.170961 0.00050983 0)
(-0.470215 -0.000488407 0)
(-0.451979 -0.000505976 0)
(-0.43466 -0.000419175 0)
(-0.41906 -0.000335267 0)
(-0.406672 -0.0001419 0)
(0.0193706 -5.97653e-07 0)
(0.0193441 8.16684e-07 0)
(0.0193424 -8.29269e-07 0)
(0.0193735 2.30567e-07 0)
(0.0193497 -3.83218e-07 0)
(0.0193833 -3.22438e-08 0)
(0.0193609 1.20878e-07 0)
(0.0193644 5.97789e-08 0)
(0.0193591 5.0587e-08 0)
(0.0193533 1.63921e-07 0)
(0.0193488 1.408e-10 0)
(0.366913 -0.000128118 0)
(0.373094 -0.00012777 0)
(0.378848 -8.45037e-05 0)
(0.384248 -6.51111e-05 0)
(0.388841 -5.11922e-05 0)
(0.21797 -0.164618 1.82107e-18)
(0.3336 -0.250526 1.87055e-18)
(0.204167 -0.153819 -9.9235e-20)
(-0.656148 0.598229 1.73156e-18)
(-1.50591 1.24898 -2.42455e-21)
(-0.991257 0.729955 -1.81855e-24)
(0.771272 -0.674838 6.77411e-22)
(-0.116775 0.147365 -9.54449e-23)
(-0.628719 0.595966 1.87767e-18)
(0.000149768 0.0014983 -2.35099e-38)
(-2.81904e-05 0.0008768 1.92283e-21)
(-6.30474e-05 0.000809321 -1.72283e-37)
(-0.000102064 0.000786675 -2.93874e-39)
(-0.00010409 0.000573623 1.54254e-20)
(-0.00015829 0.000683157 -3.08994e-20)
(-0.000136398 0.000493531 -3.0874e-20)
(-0.00018245 0.00054705 -1.21016e-22)
(-0.0001582 0.000415307 -3.0961e-20)
(0.0369256 -0.00760069 1.33702e-20)
(0.0367769 -0.00748913 5.19286e-23)
(0.0366508 -0.00738365 -5.19297e-23)
(0.0365032 -0.0072749 -2.64353e-20)
(0.0363598 -0.00716893 -1.31674e-20)
(0.0362148 -0.00706363 -5.11507e-23)
(0.0360636 -0.00695869 1.31184e-20)
(0.0359201 -0.00685665 -5.87747e-39)
(0.0357754 -0.00675567 -0)
(2.13915 1.99112 5.39461e-18)
(2.4025 1.83356 -1.80556e-35)
(2.23186 1.411 -2.58416e-18)
(1.54863 0.727891 -2.15874e-19)
(-0.662732 -0.1965 5.64237e-37)
(-0.698891 -0.2106 -2.91868e-21)
(-1.01662 -0.123495 1.86998e-18)
(-1.51312 0.207881 -7.89663e-19)
(0.066877 -0.0207446 4.42126e-20)
(-0.403867 0.279238 -6.4298e-21)
(-0.6951 0.449478 -2.34113e-19)
(-0.589397 0.383927 0)
(-0.316867 0.204359 -8.08527e-19)
(-0.0499267 0.0272673 -1.50463e-36)
(0.109188 -0.0823887 8.60272e-19)
(0.190486 -0.139793 -8.8656e-19)
(-0.122989 0.0235359 -3.18148e-19)
(-0.12541 0.0242211 -1.46937e-39)
(-0.126812 0.0247482 -3.16209e-19)
(-0.127872 0.0252346 3.17193e-19)
(-0.129223 0.0257419 3.15725e-19)
(-0.128154 0.0256769 -3.16776e-19)
(-0.122169 0.0246655 2.7528e-22)
(-0.116156 0.023528 -1.11315e-21)
(-0.1206 0.0372205 -6.45291e-19)
(-0.10747 0.0337659 0)
(-0.116966 0.0385687 6.63242e-19)
(-0.147793 0.0484766 6.44636e-19)
(-0.164915 0.053899 -3.76158e-37)
(-0.15278 0.0503025 2.68208e-20)
(-0.140341 0.0462406 -1.03389e-21)
(0.146674 -0.0182476 -4.21663e-19)
(0.126184 -0.0157817 7.10655e-22)
(0.104382 -0.0131653 -7.06825e-22)
(0.0804271 -0.0101332 7.07153e-22)
(0.055142 -0.00687193 -1.86508e-24)
(0.0298501 -0.00355612 -6.95286e-22)
(0.0457533 -3.53001e-05 0)
(0.0474658 -3.95904e-05 0)
(0.0493873 -4.46664e-05 0)
(0.0515663 -5.11089e-05 0)
(0.0540696 -5.91017e-05 0)
(0.0569754 -6.94299e-05 0)
(0.0604135 -8.32508e-05 0)
(0.0645645 -0.000102246 0)
(0.0697078 -0.000129684 0)
(0.0763069 -0.000171675 0)
(0.085163 -0.000241312 0)
(0.09784 -0.000362568 0)
(0.117076 -0.000629553 0)
(0.152263 -0.0012582 0)
(-1.51448 0.14457 3.50591e-22)
(-1.76584 0.164382 -3.49335e-22)
(-1.82079 0.166387 -1.63101e-19)
(-1.68666 0.150756 -3.02935e-19)
(-1.41008 0.124195 1.42405e-19)
(-1.06316 0.0912402 0)
(0.0191607 -5.33413e-07 0)
(0.0191894 -6.98628e-07 0)
(0.0192245 -6.88314e-07 0)
(0.0192582 -7.75677e-07 0)
(0.0192961 -7.28967e-07 0)
(0.0193296 -6.87902e-07 0)
(0.0193622 -8.54574e-07 0)
(0.0194154 -1.12878e-06 0)
(0.0194599 -8.35129e-07 0)
(0.0195023 -9.99592e-07 0)
(0.0195472 -8.75638e-07 0)
(0.0195939 -1.11012e-06 0)
(0.0196437 -8.89613e-07 0)
(0.019686 -1.04112e-06 0)
(-0.33857 0.0134114 3.81541e-36)
(-0.377809 0.0142438 6.83663e-42)
(-0.382074 0.0141623 3.82341e-39)
(-0.361859 0.0129089 0)
(-0.288771 0.00913249 -4.60013e-21)
(-0.194321 0.00432913 -9.50508e-20)
(0.541306 -0.00305498 1.46937e-39)
(0.54383 -0.00375581 -1.86221e-36)
(0.547027 -0.00442713 7.34583e-42)
(0.547184 -0.00501145 -1.57882e-26)
(0.545283 -0.00564173 -2.60865e-20)
(0.541098 -0.00616962 -1.03082e-22)
(-0.86046 2.04205 4.4081e-39)
(0.126647 -0.59953 2.99007e-21)
(0.598852 -2.156 -1.628e-18)
(1.00107 -3.79536 -1.92375e-18)
(0.584338 -2.54699 1.06657e-18)
(0.28109 -2.05809 -1.10592e-18)
(0.388527 -3.43679 5.96396e-19)
(0.175531 -1.56336 2.96757e-21)
(-0.22966 -0.000188677 0)
(0.10914 -0.051862 -1.58418e-18)
(-0.0139454 0.0124945 -4.52001e-24)
(-0.0868803 0.057245 -1.69982e-18)
(-0.290475 0.176386 -7.17584e-23)
(-0.647069 0.370253 -7.32759e-19)
(-0.486868 0.254139 -5.70954e-22)
(0.0780086 -0.0693309 -7.57238e-19)
(0.432726 -0.256462 0)
(0.0387844 -0.013829 -3.18619e-20)
(0.038968 -0.0137149 -3.1708e-20)
(0.0391526 -0.0136031 -6.19588e-23)
(0.0393059 -0.0134829 -3.15179e-20)
(0.0394552 -0.0133637 3.14203e-20)
(0.0395851 -0.0132403 -3.13826e-20)
(0.039704 -0.0131153 -6.09977e-23)
(0.0398006 -0.0129854 6.09994e-23)
(0.0398921 -0.0128564 -3.10172e-20)
(0.03996 -0.012722 -6.05971e-23)
(0.499178 -0.000223401 0)
(0.50953 -0.000266876 0)
(0.520342 -0.000523514 1.12387e-40)
(0.526849 -0.00111081 3.1821e-38)
(0.532624 -0.00178488 6.17154e-21)
(0.537887 -0.00239931 -1.24575e-20)
(-0.139577 0.00745298 4.41917e-22)
(-0.138735 0.00830738 7.28134e-26)
(-0.178647 0.0104577 0)
(-0.178009 0.00878097 -4.06881e-23)
(-0.159043 0.00769023 -6.60718e-22)
(-0.143517 0.00847403 -9.49393e-20)
(-0.150119 0.00964574 -3.73388e-22)
(-0.063439 -0.000250575 0)
(-0.0511934 -0.000246513 0)
(-0.0376542 -0.000280784 0)
(-0.0225288 -0.000403715 0)
(0.0592204 -0.000286756 0)
(0.0706618 -0.000180898 0)
(0.0842068 -0.000471734 0)
(0.110007 -0.00055672 0)
(0.128993 -0.000425285 0)
(0.141468 -0.000238345 0)
(-0.339265 -0.000371164 0)
(-0.321459 -0.000286846 0)
(-0.308988 -0.000503627 0)
(-0.301531 -7.78302e-05 0)
(-0.296232 -1.7708e-05 0)
(0.0292264 -0.00338906 -5.6264e-21)
(0.0290368 -0.00332249 4.34746e-23)
(0.0288824 -0.00326341 5.52558e-21)
(0.028759 -0.00320589 -4.9705e-27)
(0.0286033 -0.00314706 -5.51221e-21)
(0.0284917 -0.0030924 -5.49462e-21)
(0.0283387 -0.00303397 -5.47755e-21)
(0.0281594 -0.00297296 5.46011e-21)
(0.0279913 -0.00291574 -1.46937e-39)
(0.0278555 -0.00286126 -2.11657e-23)
(0.103498 -0.000181541 0)
(0.111981 -0.000273364 0)
(-0.259175 -0.000509565 0)
(-0.268202 -0.000115075 0)
(-0.20527 -0.000355975 0)
(-0.189173 -0.000234072 0)
(-0.178196 -0.000120364 0)
(-0.17295 4.02392e-05 0)
(-0.174558 0.000103548 0)
(0.0400503 -0.0113337 -5.82678e-23)
(0.0400388 -0.0112005 -2.97194e-20)
(0.0399025 -0.0110353 2.9607e-20)
(0.0398663 -0.0109035 -2.94982e-20)
(0.0398188 -0.0107669 -2.94429e-20)
(0.0397428 -0.0106273 0)
(0.0397043 -0.0104979 6.79583e-39)
(0.0396115 -0.0103576 -5.67471e-23)
(0.0395444 -0.0102254 2.90554e-20)
(0.0394464 -0.0100877 -2.8888e-20)
(0.123165 -0.000252002 0)
(0.128375 -0.000149691 0)
(0.136091 -0.000268258 0)
(0.151352 -0.00040538 0)
(0.172367 -0.000638365 0)
(-0.107291 -0.000189777 0)
(-0.0972809 -0.00021232 0)
(-0.086543 -0.000226667 0)
(-0.0755848 -0.000238748 0)
(-0.285977 -0.000486113 0)
(0.0277129 -0.00280698 -5.368e-21)
(0.0275465 -0.00274961 -6.43011e-26)
(0.0273701 -0.00269409 -4.2006e-23)
(0.0272348 -0.00264189 2.09741e-23)
(0.0270752 -0.00258894 5.36642e-21)
(0.0269601 -0.00253925 -1.04561e-23)
(0.0267511 -0.00248162 -1.03941e-23)
(0.0266152 -0.00243342 1.03339e-23)
(0.0264812 -0.00238381 -1.0334e-23)
(0.0263287 -0.00233428 4.44436e-27)
(0.0268746 0.000541361 0)
(-0.00110843 0.00103929 0)
(-0.0293347 0.00103072 0)
(-0.0600734 0.000861367 0)
(-0.092113 0.000806878 0)
(-0.124239 0.000829741 0)
(-0.157926 0.000569299 0)
(-0.190387 0.000724955 0)
(-0.223432 0.000725024 0)
(0.0183784 -5.33202e-08 0)
(0.0183797 -8.76215e-08 0)
(0.0183888 -1.90473e-07 0)
(0.0183971 -1.53969e-07 0)
(0.018406 -2.70996e-07 0)
(0.018423 -3.31684e-07 0)
(0.0184365 -3.1258e-07 0)
(0.0184538 -3.23266e-07 0)
(0.0184646 -2.5775e-07 0)
(0.0184827 -4.09244e-07 0)
(0.0184981 -2.61682e-07 0)
(0.0185133 -4.07797e-07 0)
(0.0185318 -3.14864e-07 0)
(0.340724 0.000418676 0)
(0.326241 0.00046872 0)
(0.30929 0.000646316 0)
(0.293204 0.000648151 0)
(0.274125 0.00053561 0)
(-0.913823 0.426066 -8.05688e-25)
(-0.482201 0.195565 6.88766e-41)
(0.114162 -0.0639304 -9.40395e-38)
(0.245899 -0.115599 9.01281e-20)
(-0.0241228 0.0213913 -1.47642e-35)
(-0.119705 0.0520568 -1.26231e-36)
(0.399104 -0.206337 7.52316e-37)
(0.322133 -0.160935 -6.38666e-19)
(0.0341412 -0.00571659 -2.93874e-39)
(0.0339996 -0.0056305 1.2398e-20)
(0.0338104 -0.00553602 -2.40801e-23)
(0.0336381 -0.00544824 1.23072e-20)
(0.0335031 -0.00536546 2.39928e-23)
(0.0333421 -0.00528097 1.21936e-20)
(0.0332214 -0.00520253 2.38188e-23)
(0.0330687 -0.00512044 2.36459e-23)
(0.0329238 -0.00503962 -2.36465e-23)
(0.032733 -0.00495392 -1.20412e-20)
(0.0356339 -0.00665657 -1.76324e-37)
(0.0354931 -0.00655892 -1.28705e-20)
(0.0353501 -0.00646184 1.17549e-38)
(0.0352083 -0.0063664 1.27738e-20)
(0.0350638 -0.00627146 2.48079e-23)
(0.0349186 -0.0061776 1.26532e-20)
(0.0347575 -0.00608184 -2.52852e-20)
(0.0346057 -0.00598966 2.4623e-23)
(0.0344569 -0.00589852 1.25119e-20)
(0.0343088 -0.00580882 2.44403e-23)
(-0.106082 0.0184026 3.21045e-19)
(-0.0910263 0.0161612 2.50575e-19)
(-0.086775 0.0159892 4.18613e-20)
(-0.0913431 0.0170865 1.26974e-21)
(-0.102072 0.019172 -1.24988e-21)
(-0.11113 0.020989 -3.18684e-19)
(-0.118493 0.0224992 -3.18653e-19)
(0.394964 -0.000106849 0)
(0.401403 -6.74083e-05 0)
(0.405568 -6.17844e-05 0)
(0.409194 -2.26969e-05 0)
(0.41008 5.30844e-05 0)
(-0.16147 -0.000173108 0)
(-0.153319 -0.000172902 0)
(-0.145222 -0.000190982 0)
(-0.136052 -0.000210928 0)
(-0.126995 -0.000197654 0)
(0.0185731 -3.92799e-08 0)
(0.0185806 1.93472e-07 0)
(0.0185589 1.56618e-09 0)
(0.0185826 5.35435e-08 0)
(0.0185361 1.0425e-06 0)
(0.0185175 6.34291e-08 0)
(0.0185079 6.86524e-07 0)
(0.0184812 3.21469e-08 0)
(0.0184882 4.44934e-07 0)
(0.0184546 4.21152e-07 0)
(0.0184447 4.23742e-07 0)
(0.0184236 3.06749e-07 0)
(0.0188949 -6.67061e-07 0)
(0.0189157 -7.87256e-07 0)
(0.0189703 -1.35024e-06 0)
(0.0190234 -6.39682e-07 0)
(0.019025 -3.35514e-07 0)
(0.0190616 -8.65129e-07 0)
(0.0190894 -5.22457e-07 0)
(0.0191174 -8.49031e-07 0)
(0.0191535 -6.96396e-07 0)
(0.0191876 -8.72313e-07 0)
(0.0192185 -6.91603e-07 0)
(0.134395 -0.0313067 6.58518e-19)
(0.174586 -0.0406276 -3.32453e-19)
(0.212528 -0.0496763 3.37391e-19)
(0.253209 -0.0596103 -3.42518e-19)
(0.292625 -0.0691851 1.3351e-21)
(0.323114 -0.0767679 1.46937e-39)
(0.339312 -0.0809144 -1.22609e-25)
(0.340375 -0.0816427 1.60896e-37)
(3.12931 -1.91646 -3.75234e-21)
(7.74478 -5.60808 2.45179e-18)
(6.24449 -10.141 1.31719e-20)
(1.74805 -10.5788 7.2777e-19)
(-1.87033 -8.24178 1.61251e-21)
(-3.51783 -5.35829 -5.7817e-19)
(-3.04623 -2.16949 -2.78906e-19)
(-1.67944 -0.452343 -4.51559e-20)
(-0.357738 -0.0603822 6.46522e-37)
(0.431724 -0.000343276 0)
(0.444591 -0.000317503 0)
(0.456726 -0.000300697 0)
(0.468482 -0.000273852 0)
(0.478861 -0.00024261 0)
(0.489277 -0.000239812 0)
(0.00548617 5.79709e-05 -3.5342e-19)
(-0.0182847 0.00342474 -3.52515e-19)
(-0.0423891 0.00672441 6.96822e-19)
(-0.068801 0.0105524 3.44737e-19)
(-0.100569 0.0155049 0)
(-0.136543 0.0209418 0)
(-0.176069 0.0270635 3.3306e-19)
(-0.341897 9.85499e-05 0)
(-0.34297 -0.000120566 0)
(-0.337101 -0.000156627 0)
(-0.332007 -0.000120124 0)
(-0.323702 -0.000160011 0)
(-0.253863 0.000596418 0)
(-0.280926 0.000442774 0)
(-0.301922 0.0002344 0)
(-0.31766 0.000172392 0)
(-0.332211 0.000232131 0)
(0.0383383 -0.00878877 1.39497e-20)
(0.0381865 -0.00865985 -1.38963e-20)
(0.0380511 -0.00853644 2.75764e-20)
(0.0379198 -0.00841591 2.35099e-38)
(0.0377488 -0.00828698 -1.36813e-20)
(0.0375909 -0.00816522 0)
(0.0374603 -0.00804915 1.35764e-20)
(0.0373074 -0.00793146 -1.34723e-20)
(0.0371954 -0.0078226 1.33676e-20)
(0.0370458 -0.00770806 1.34741e-20)
(0.0188064 -5.74698e-07 0)
(0.0188383 -7.28012e-07 0)
(0.0188729 -7.115e-07 0)
(0.0189045 -6.28815e-07 0)
(0.0189305 -5.11327e-07 0)
(0.0189549 -5.70422e-07 0)
(0.0189839 -4.97896e-07 0)
(0.019002 -3.11814e-07 0)
(0.0190182 -3.72524e-07 0)
(0.0190411 -5.93654e-07 0)
(0.0190771 -7.26467e-07 0)
(0.0191062 -5.44558e-07 0)
(0.0191332 -6.01416e-07 0)
(-0.15322 -0.0502363 2.1674e-20)
(-0.0219706 -0.015147 -5.42038e-23)
(-0.0108007 -0.00924133 3.13748e-20)
(-0.00215856 -0.00322552 -5.36814e-25)
(0.319246 -0.0325011 -2.29616e-24)
(0.272226 -0.0287992 1.68965e-19)
(0.258632 -0.0282011 1.71956e-19)
(0.250251 -0.0278419 -3.44821e-19)
(0.24761 -0.0279487 -1.3609e-21)
(0.24553 -0.0280502 -1.74928e-19)
(0.243231 -0.0281259 -1.9043e-36)
(-0.334121 0.000244046 0)
(-0.342832 0.000162073 0)
(-0.347161 -2.81708e-05 0)
(-0.345759 -0.000162997 0)
(-0.33934 -0.000316356 0)
(0.0191629 4.55181e-07 0)
(0.0191373 2.83212e-07 0)
(0.0191303 2.66148e-07 0)
(0.0191181 8.08979e-08 0)
(0.0191174 6.58821e-08 0)
(0.0191132 1.02244e-07 0)
(0.019102 1.67504e-07 0)
(0.019102 2.48343e-07 0)
(0.019065 1.01445e-06 0)
(0.0190287 4.46353e-07 0)
(0.0190128 5.63918e-07 0)
(0.0189899 2.64345e-07 0)
(-0.184288 0.0123054 -2.94547e-23)
(-0.204673 0.0134569 9.40395e-38)
(-0.220792 0.0145558 -3.80623e-19)
(-0.226006 0.0143876 -1.90362e-19)
(-0.192168 0.0106096 3.67122e-27)
(-0.136076 0.0056792 3.15329e-22)
(0.428019 -0.00784344 -6.41136e-21)
(0.409877 -0.00783768 -4.18529e-23)
(0.381516 -0.00797079 1.08665e-19)
(0.350772 -0.00763628 -5.87747e-39)
(0.315268 -0.0070591 -5.39693e-20)
(0.273696 -0.00622004 -2.93874e-39)
(-0.147631 -0.000229262 0)
(-0.137321 -0.000217007 0)
(-0.12676 -0.00022506 0)
(-0.116328 -0.000186424 0)
(-0.123614 0.000370057 0)
(-0.131655 5.82172e-05 0)
(-0.13185 -0.000131577 0)
(-0.11159 -0.000811263 0)
(-0.0881848 -0.000358095 0)
(-0.0701061 -0.000434454 0)
(-0.119696 -0.000537383 0)
(-0.105489 -0.000617069 0)
(-0.0608546 -0.000916473 0)
(-0.0312377 -0.000183222 0)
(-0.0166407 -0.000254624 0)
(-0.530209 0.505673 2.79983e-20)
(-0.151716 0.0741467 1.74045e-18)
(1.07705 -1.13205 0)
(0.922742 -0.951042 5.32256e-22)
(-0.347869 0.540466 4.56662e-21)
(-2.2038 2.65999 1.92838e-18)
(-1.46159 1.68355 2.98781e-22)
(-0.363284 0.340566 2.11941e-18)
(0.0184158 2.36759e-07 0)
(0.0184066 7.15672e-08 0)
(0.0184094 -4.12995e-08 0)
(0.0184117 -1.28081e-07 0)
(0.0184208 -2.04174e-08 0)
(0.0184114 1.13924e-07 0)
(0.0184183 -3.64842e-07 0)
(0.0184368 -4.8719e-09 0)
(0.0184181 2.84663e-07 0)
(0.0184183 -1.82941e-08 0)
(0.0184152 1.63001e-07 0)
(0.0184115 -3.42841e-08 0)
(0.018414 8.56761e-08 0)
(1.36566 -1.85848 5.32013e-21)
(0.294544 -0.368856 5.17438e-20)
(-0.106784 0.177581 6.23394e-20)
(-0.0842055 -0.0569303 -1.21505e-18)
(1.38031 -2.39769 -1.19155e-20)
(0.360876 -0.542329 1.22678e-23)
(-1.71588 3.84767 -1.43656e-18)
(-1.8325 4.18548 -3.88866e-22)
(0.21451 -0.00466434 0)
(0.0309707 -0.00412002 -5.88838e-38)
(0.0307777 -0.00404459 2.24927e-23)
(0.0306177 -0.00397638 1.15036e-20)
(0.0304843 -0.00391025 1.14417e-20)
(0.0303287 -0.00384353 2.22792e-23)
(0.0302185 -0.0037814 1.13876e-20)
(0.0300097 -0.00370802 -1.13717e-20)
(0.0298565 -0.00364387 -1.04472e-36)
(0.0296982 -0.00357859 -5.65931e-21)
(0.029536 -0.00351416 2.19854e-23)
(0.0293655 -0.00344925 2.18424e-23)
(-0.0182433 0.00727471 7.06013e-19)
(-0.0900703 0.0259785 -6.96829e-19)
(-0.153309 0.0426858 -6.84451e-19)
(-0.204653 0.0565363 -1.34459e-18)
(-0.250527 0.0693706 0)
(-0.286305 0.0794659 -6.52448e-19)
(-0.294167 0.0816234 1.29153e-18)
(-0.274318 0.0761466 1.28407e-18)
(-0.179379 -0.000128968 0)
(-0.174044 -0.00017861 0)
(-0.166647 -0.000219081 0)
(-0.157787 -0.000229642 0)
(0.00171216 -0.0113087 3.77246e-22)
(0.123494 -0.00734757 1.26302e-20)
(-0.111917 0.020032 -3.73312e-19)
(-0.365422 0.0356603 -1.38526e-23)
(-0.486469 0.047696 -7.93821e-23)
(-0.766801 0.0748462 0)
(-1.1564 0.111646 -1.91223e-19)
(0.387063 0.000236739 0)
(0.380213 0.000263638 0)
(0.372341 0.000289605 0)
(0.363006 0.000325047 0)
(0.352832 0.000355229 0)
(0.0184094 1.12262e-08 0)
(0.0184106 1.11561e-07 0)
(0.0184038 -1.4889e-07 0)
(0.0184245 -3.76044e-08 0)
(0.0183985 5.60149e-07 0)
(0.0183939 -1.29197e-07 0)
(0.0183967 2.42454e-07 0)
(0.0183888 -1.58817e-07 0)
(0.0184005 1.38309e-07 0)
(0.0183855 1.76835e-07 0)
(0.0183824 2.18913e-07 0)
(0.0183725 5.15933e-08 0)
(0.0393628 -0.00995537 -2.87202e-20)
(0.0392413 -0.00981595 -2.17272e-25)
(0.0391517 -0.00968671 2.84996e-20)
(0.0390303 -0.00955118 1.42224e-20)
(0.0389274 -0.00942284 1.17549e-38)
(0.0388073 -0.00929138 -1.41126e-20)
(0.0386952 -0.00916483 -1.40587e-20)
(0.0385735 -0.00903654 -1.39491e-20)
(0.0384514 -0.00891163 -1.40048e-20)
(0.0326206 -1.20581e-05 0)
(0.0331944 -1.27612e-05 0)
(0.0338005 -1.35208e-05 0)
(0.0344447 -1.43927e-05 0)
(0.0351304 -1.53366e-05 0)
(0.0358619 -1.64081e-05 0)
(0.0366453 -1.75729e-05 0)
(0.0374841 -1.88836e-05 0)
(0.0383884 -2.03886e-05 0)
(0.0393642 -2.20499e-05 0)
(0.0404224 -2.39903e-05 0)
(0.0415739 -2.61456e-05 0)
(0.0428321 -2.87425e-05 0)
(0.0442198 -3.17573e-05 0)
(0.0205648 -1.4063e-06 0)
(0.0206359 -1.60318e-06 0)
(0.0207114 -1.56144e-06 0)
(0.0207876 -1.74747e-06 0)
(0.0208709 -1.70731e-06 0)
(0.0209506 -1.79674e-06 0)
(0.0210363 -1.77934e-06 0)
(0.0211191 -1.86727e-06 0)
(0.0212108 -1.93658e-06 0)
(0.0213003 -1.94714e-06 0)
(0.0213961 -2.0933e-06 0)
(0.0214937 -2.11087e-06 0)
(0.0215966 -2.23911e-06 0)
(0.0216988 -2.20556e-06 0)
(0.0185478 -3.49509e-07 0)
(0.01856 -1.60057e-07 0)
(0.0185701 -3.01565e-07 0)
(0.0185855 -2.54789e-07 0)
(0.0186014 -4.64184e-07 0)
(0.0186265 -4.89277e-07 0)
(0.0186519 -6.28778e-07 0)
(0.0186821 -4.81525e-07 0)
(0.018699 -4.32634e-07 0)
(0.0187242 -4.37276e-07 0)
(0.0187388 -2.5662e-07 0)
(0.0187543 -4.59799e-07 0)
(0.0187824 -5.45323e-07 0)
(-0.162271 0.026132 -6.24617e-22)
(-0.145933 0.0240091 -1.09164e-24)
(-0.144928 0.0243536 9.38136e-21)
(-0.151293 0.0259816 0)
(-0.154105 0.0262113 -3.20023e-19)
(-0.139398 0.0233317 -4.11251e-24)
(-0.123898 0.0212824 -6.43949e-19)
(0.0192592 -7.95266e-07 0)
(0.0192687 -4.73773e-07 0)
(0.0193234 -9.39327e-07 0)
(0.0193032 9.24913e-07 0)
(0.0192935 -8.8378e-07 0)
(0.0193326 3.3422e-07 0)
(0.0192945 -2.44599e-07 0)
(0.0193342 -1.96061e-07 0)
(0.019319 -2.05329e-07 0)
(0.0193495 -2.1184e-07 0)
(0.0193281 -5.87478e-08 0)
(0.0188447 3.34545e-07 0)
(0.0188425 3.30784e-07 0)
(0.0188142 4.61329e-07 0)
(0.0188068 1.32164e-07 0)
(0.0187958 3.21744e-07 0)
(0.0187856 -3.9032e-08 0)
(0.018794 -2.83983e-08 0)
(0.0187886 -2.13712e-08 0)
(0.0187941 2.06165e-08 0)
(0.0187815 3.29775e-07 0)
(0.0187674 3.67495e-07 0)
(0.0187432 6.01118e-07 0)
(0.0187209 3.10861e-07 0)
(-0.347315 -0.000231153 0)
(-0.335179 -0.000267155 0)
(-0.323137 -0.000230902 0)
(-0.314131 -0.000171763 0)
(-0.306591 -0.00015768 0)
(-0.254596 -0.000175182 0)
(-0.246699 -0.000197887 0)
(-0.238103 -0.00019753 0)
(-0.229438 -0.00019719 0)
(-0.22093 -0.000180972 0)
(0.0245097 -0.00177644 -9.94688e-24)
(0.0243839 -0.00173484 2.57389e-26)
(0.0241978 -0.00168872 -1.01363e-20)
(0.0240333 -0.00164686 -5.07059e-21)
(0.0238876 -0.00160524 2.45503e-26)
(0.02373 -0.00156391 9.84725e-24)
(0.0235513 -0.00152084 -9.79932e-24)
(0.0233952 -0.0014819 9.79946e-24)
(0.0232656 -0.0014429 1.52809e-40)
(0.0231015 -0.00140362 9.73024e-24)
(0.0187108 3.95536e-07 0)
(0.0186886 2.59051e-07 0)
(0.0186887 8.52753e-08 0)
(0.0186764 2.65644e-07 0)
(0.0186683 2.28102e-07 0)
(0.0186495 2.80043e-07 0)
(0.0186526 1.69077e-07 0)
(0.0186178 9.0396e-07 0)
(0.0185957 9.6827e-08 0)
(0.0185916 4.57126e-07 0)
(0.018574 -6.57082e-08 0)
(0.0185848 1.17816e-07 0)
(0.0784547 -0.0301881 -6.66813e-19)
(0.105392 -0.0408486 -3.68635e-35)
(0.133517 -0.0522746 4.26117e-38)
(0.165362 -0.0655218 -1.33738e-21)
(0.200031 -0.0802599 6.89087e-19)
(0.243678 -0.0989081 -6.93989e-19)
(0.284292 -0.115879 1.80524e-23)
(0.299379 -0.121186 -1.38454e-21)
(-0.213904 0.0327642 4.10012e-35)
(-0.239846 0.0366477 -3.25932e-19)
(-0.249352 0.038102 -1.88079e-37)
(-0.246302 0.0377828 3.21773e-19)
(-0.234636 0.036194 -6.25983e-22)
(-0.216289 0.0336315 -3.19217e-19)
(-0.194083 0.0304139 1.82614e-20)
(-0.180178 0.0284707 0)
(-0.0572977 -0.000633935 9.3108e-20)
(0.0338256 -0.00216012 1.86281e-22)
(0.0454645 -0.000535997 -9.1265e-20)
(-0.0430736 0.00442976 -4.56092e-36)
(-0.11539 0.00662976 9.58372e-20)
(-0.129263 0.00763275 -1.18861e-23)
(0.0262096 -0.00228671 -2.88731e-37)
(0.0259935 -0.00223172 -5.22796e-21)
(0.0258538 -0.00218588 -1.02169e-23)
(0.0257121 -0.00213834 -1.01601e-23)
(0.025567 -0.00209182 2.02927e-23)
(0.0253962 -0.00204243 -2.77187e-26)
(0.0252145 -0.00199497 -5.18695e-21)
(0.0250817 -0.00195067 1.00778e-23)
(0.0249203 -0.00190516 -7.26074e-40)
(0.0247895 -0.00186213 -9.99838e-24)
(0.0246447 -0.00181874 5.12257e-21)
(0.0240259 -0.0130626 1.29484e-22)
(0.0249684 -0.0133162 -6.64386e-20)
(0.0258902 -0.0135597 -3.03402e-20)
(0.026733 -0.0137586 -2.6825e-25)
(0.0276037 -0.013928 9.18355e-41)