/*--------------------------------*- C++ -*----------------------------------*\
| =========                 |                                                 |
| \\      /  F ield         | OpenFOAM: The Open Source CFD Toolbox           |
|  \\    /   O peration     | Version:  2412                                  |
|   \\  /    A nd           | Website:  www.openfoam.com                      |
|    \\/     M anipulation  |                                                 |
\*---------------------------------------------------------------------------*/
FoamFile
{
    version     2.0;
    format      ascii;
    arch        "LSB;label=32;scalar=64";
    class       volScalarField;
    location    "4500";
    object      p;
}
// * * * * * * * * * * * * * * * * * * * * * * * * * * * * * * * * * * * * * //

dimensions      [0 2 -2 0 0 0 0];

internalField   nonuniform List<scalar> 
360650
(
-4.69704
-4.69704
-4.69705
-4.69707
-4.69708
-4.6971
-4.69713
-4.69717
-4.69722
-4.69729
-4.69737
-4.69748
-4.69762
-4.69778
-4.69799
-4.69823
-4.69853
-4.69889
-4.69932
-4.69982
-4.70041
-4.70111
-4.70192
-4.70286
-4.70395
-4.7052
-4.70661
-4.70851
-4.68726
-4.68727
-4.68728
-4.68729
-4.68731
-4.68733
-4.68735
-4.68739
-4.68743
-4.68749
-4.68756
-4.68765
-4.68776
-4.6879
-4.68807
-4.68827
-4.68851
-4.68879
-4.68913
-4.68952
-4.68997
-4.69049
-4.69109
-4.69176
-4.69251
-4.69334
-4.6943
-4.69543
-4.67768
-4.67769
-4.6777
-4.67771
-4.67772
-4.67774
-4.67777
-4.6778
-4.67785
-4.67791
-4.67799
-4.67808
-4.6782
-4.67834
-4.67852
-4.67874
-4.679
-4.6793
-4.67966
-4.68008
-4.68057
-4.68113
-4.68178
-4.68251
-4.68332
-4.68422
-4.68524
-4.68624
-4.66818
-4.66819
-4.6682
-4.66821
-4.66822
-4.66824
-4.66827
-4.66831
-4.66835
-4.66841
-4.66849
-4.66859
-4.66871
-4.66885
-4.66904
-4.66926
-4.66953
-4.66984
-4.67022
-4.67067
-4.6712
-4.67181
-4.67252
-4.67335
-4.67431
-4.67541
-4.67669
-4.67807
-4.65878
-4.65879
-4.6588
-4.65881
-4.65883
-4.65885
-4.65887
-4.6589
-4.65895
-4.659
-4.65907
-4.65916
-4.65927
-4.6594
-4.65957
-4.65976
-4.66
-4.66028
-4.6606
-4.66099
-4.66143
-4.66195
-4.66254
-4.66321
-4.66396
-4.66482
-4.66575
-4.66672
-4.64968
-4.64968
-4.64969
-4.6497
-4.64972
-4.64974
-4.64976
-4.64979
-4.64984
-4.64989
-4.64996
-4.65005
-4.65017
-4.6503
-4.65047
-4.65068
-4.65093
-4.65122
-4.65157
-4.65197
-4.65245
-4.65299
-4.65362
-4.65434
-4.65514
-4.65605
-4.65702
-4.65814
-4.64051
-4.64052
-4.64052
-4.64054
-4.64055
-4.64057
-4.64059
-4.64063
-4.64068
-4.64073
-4.64081
-4.64091
-4.64103
-4.64118
-4.64137
-4.6416
-4.64187
-4.6422
-4.64259
-4.64306
-4.6436
-4.64424
-4.64498
-4.64584
-4.64683
-4.64796
-4.6492
-4.65074
-4.63165
-4.63166
-4.63167
-4.63168
-4.63169
-4.63171
-4.63174
-4.63177
-4.63182
-4.63188
-4.63195
-4.63205
-4.63217
-4.63232
-4.6325
-4.63273
-4.633
-4.63333
-4.63373
-4.6342
-4.63475
-4.63541
-4.63618
-4.63708
-4.63814
-4.63936
-4.6408
-4.64268
-4.62261
-4.62261
-4.62262
-4.62263
-4.62265
-4.62267
-4.62269
-4.62272
-4.62276
-4.6228
-4.62287
-4.62294
-4.62304
-4.62316
-4.6233
-4.62348
-4.62368
-4.62393
-4.62422
-4.62456
-4.62495
-4.6254
-4.62591
-4.62649
-4.62713
-4.62783
-4.62865
-4.62935
-4.61439
-4.61439
-4.6144
-4.61441
-4.61443
-4.61444
-4.61447
-4.6145
-4.61454
-4.61459
-4.61466
-4.61474
-4.61485
-4.61498
-4.61514
-4.61534
-4.61558
-4.61586
-4.6162
-4.6166
-4.61706
-4.61759
-4.61821
-4.6189
-4.61969
-4.62057
-4.62151
-4.62241
-4.60579
-4.6058
-4.60581
-4.60582
-4.60583
-4.60585
-4.60587
-4.60591
-4.60595
-4.606
-4.60607
-4.60616
-4.60627
-4.6064
-4.60657
-4.60677
-4.60702
-4.60731
-4.60767
-4.60809
-4.60858
-4.60916
-4.60984
-4.61063
-4.61154
-4.6126
-4.61381
-4.61532
-99.5864
-99.5859
-99.5857
-99.5859
-99.5866
-99.5877
-99.5892
-99.5911
-99.5934
-99.5959
-99.5985
-99.6006
-99.6019
-99.6027
-99.6036
-99.6049
-99.607
-99.6116
-99.6213
-99.6392
-99.6662
-99.6998
-99.7338
-99.7701
-99.8013
-99.8463
-99.8852
-99.9554
-99.1701
-99.1694
-99.1689
-99.1689
-99.1693
-99.1702
-99.1716
-99.1735
-99.1758
-99.1785
-99.1817
-99.1856
-99.1903
-99.1961
-99.2033
-99.2123
-99.2239
-99.2385
-99.2566
-99.2787
-99.3051
-99.3383
-99.3789
-99.4285
-99.4835
-99.5458
-99.6025
-99.6918
-98.6782
-98.6775
-98.6767
-98.6763
-98.6762
-98.6766
-98.6775
-98.679
-98.6814
-98.6846
-98.6888
-98.6942
-98.701
-98.7093
-98.7196
-98.7319
-98.7467
-98.7644
-98.7852
-98.8092
-98.8369
-98.8688
-98.9042
-98.9423
-98.98
-99.023
-99.0594
-99.1182
-98.1121
-98.1114
-98.1108
-98.1104
-98.1102
-98.1104
-98.111
-98.1122
-98.1141
-98.1167
-98.1202
-98.1247
-98.1305
-98.1378
-98.1467
-98.1575
-98.1704
-98.1857
-98.2038
-98.2245
-98.2483
-98.2742
-98.3016
-98.3305
-98.3594
-98.39
-98.4118
-98.457
-97.5529
-97.5523
-97.5517
-97.5512
-97.551
-97.5509
-97.5512
-97.5518
-97.5529
-97.5545
-97.5567
-97.5596
-97.5634
-97.5683
-97.5744
-97.5821
-97.5914
-97.6027
-97.6161
-97.6316
-97.6493
-97.6687
-97.6896
-97.7115
-97.7334
-97.7562
-97.7764
-97.8138
-96.9314
-96.9307
-96.9301
-96.9296
-96.9293
-96.9292
-96.9293
-96.9297
-96.9305
-96.9317
-96.9334
-96.9357
-96.9388
-96.9429
-96.9482
-96.9549
-96.9635
-96.974
-96.9868
-97.0019
-97.0195
-97.0391
-97.0607
-97.0834
-97.1074
-97.1333
-97.1577
-97.1977
-53.2578
-53.2582
-53.2588
-53.2592
-53.2596
-53.26
-53.2603
-53.2606
-53.2611
-53.2618
-53.2628
-53.2643
-53.2664
-53.2692
-53.2728
-53.2771
-53.2822
-53.288
-53.2944
-53.3013
-53.3086
-53.3159
-53.3234
-53.3308
-53.338
-53.3451
-53.3543
-53.3548
-53.5123
-53.5128
-53.5132
-53.5136
-53.5139
-53.5141
-53.5143
-53.5143
-53.5144
-53.5148
-53.5155
-53.5167
-53.5187
-53.5215
-53.5252
-53.5298
-53.5354
-53.5419
-53.5494
-53.5578
-53.5672
-53.5774
-53.5884
-53.6004
-53.613
-53.6264
-53.6399
-53.649
-53.7683
-53.7687
-53.7691
-53.7694
-53.7696
-53.7697
-53.7698
-53.7699
-53.7701
-53.7707
-53.7717
-53.7734
-53.7759
-53.7794
-53.7839
-53.7895
-53.7963
-53.8042
-53.8134
-53.8238
-53.8356
-53.8489
-53.8637
-53.8803
-53.8988
-53.9195
-53.9443
-53.9694
-54.0589
-54.0593
-54.0597
-54.0599
-54.0602
-54.0604
-54.0607
-54.0612
-54.0619
-54.063
-54.0647
-54.0671
-54.0703
-54.0744
-54.0796
-54.0857
-54.0929
-54.1012
-54.1106
-54.1211
-54.1328
-54.1458
-54.1601
-54.1756
-54.1927
-54.2114
-54.2339
-54.2508
-54.3831
-54.3835
-54.384
-54.3843
-54.3846
-54.3851
-54.3857
-54.3866
-54.3879
-54.3897
-54.3922
-54.3953
-54.3991
-54.4038
-54.4093
-54.4158
-54.4231
-54.4313
-54.4404
-54.4504
-54.4614
-54.4736
-54.4868
-54.5013
-54.5172
-54.5346
-54.5556
-54.5701
-102.469
-102.471
-102.471
-102.47
-102.469
-102.473
-102.486
-102.511
-102.554
-102.617
-102.701
-102.803
-102.921
-103.054
-103.207
-103.379
-103.569
-103.778
-104.005
-104.25
-104.505
-104.75
-104.997
-105.266
-105.56
-105.889
-106.236
-106.573
-104.57
-104.574
-104.579
-104.584
-104.591
-104.603
-104.619
-104.642
-104.673
-104.712
-104.761
-104.819
-104.89
-104.974
-105.07
-105.181
-105.308
-105.453
-105.62
-105.813
-106.034
-106.281
-106.559
-106.868
-107.202
-107.558
-107.929
-108.279
-106.521
-106.524
-106.528
-106.532
-106.538
-106.546
-106.559
-106.576
-106.6
-106.632
-106.674
-106.726
-106.79
-106.866
-106.957
-107.066
-107.196
-107.35
-107.531
-107.742
-107.985
-108.256
-108.553
-108.876
-109.215
-109.559
-109.905
-110.232
-108.766
-108.769
-108.772
-108.775
-108.781
-108.788
-108.8
-108.815
-108.835
-108.861
-108.895
-108.939
-108.994
-109.061
-109.144
-109.246
-109.37
-109.519
-109.694
-109.897
-110.127
-110.386
-110.667
-110.961
-111.258
-111.558
-111.863
-112.139
-111.457
-111.46
-111.465
-111.469
-111.476
-111.487
-111.501
-111.519
-111.544
-111.574
-111.61
-111.653
-111.707
-111.774
-111.858
-111.961
-112.084
-112.228
-112.395
-112.584
-112.794
-113.02
-113.26
-113.508
-113.76
-114.019
-114.286
-114.54
-114.437
-114.44
-114.444
-114.449
-114.456
-114.467
-114.481
-114.5
-114.525
-114.556
-114.592
-114.636
-114.689
-114.755
-114.835
-114.931
-115.044
-115.173
-115.32
-115.481
-115.657
-115.845
-116.043
-116.247
-116.457
-116.679
-116.91
-117.128
-97.1782
-97.1789
-97.1789
-97.1776
-97.1751
-97.1714
-97.1668
-97.1613
-97.1549
-97.1475
-97.139
-97.1293
-97.1182
-97.1055
-97.0909
-97.0735
-97.0526
-97.0286
-97.0022
-96.9725
-96.9394
-96.9035
-96.8681
-96.8376
-96.7899
-96.728
-96.5722
-96.4106
-97.4994
-97.5001
-97.501
-97.5018
-97.5025
-97.503
-97.5031
-97.5027
-97.5019
-97.5005
-97.4986
-97.496
-97.4928
-97.4891
-97.4847
-97.4799
-97.4749
-97.4689
-97.4612
-97.4523
-97.4424
-97.4302
-97.4141
-97.3942
-97.367
-97.356
-97.3239
-97.347
-97.7343
-97.7346
-97.7349
-97.7349
-97.7346
-97.7338
-97.7325
-97.7306
-97.7281
-97.725
-97.7211
-97.7167
-97.7115
-97.7054
-97.6979
-97.6888
-97.6779
-97.6653
-97.651
-97.6346
-97.6158
-97.5944
-97.57
-97.5443
-97.5157
-97.4984
-97.4584
-97.4269
-97.8809
-97.8812
-97.8816
-97.8819
-97.8821
-97.8823
-97.8825
-97.8827
-97.883
-97.8833
-97.8839
-97.8847
-97.8857
-97.887
-97.8887
-97.8906
-97.8925
-97.8946
-97.8973
-97.9004
-97.9041
-97.9099
-97.9186
-97.9299
-97.9466
-97.9686
-97.9872
-98.0489
-98.1003
-98.1005
-98.1009
-98.1012
-98.1016
-98.1023
-98.1034
-98.1049
-98.1072
-98.1102
-98.114
-98.1186
-98.1241
-98.1304
-98.1375
-98.1457
-98.1551
-98.1653
-98.1764
-98.188
-98.2006
-98.2183
-98.239
-98.2604
-98.2839
-98.3126
-98.346
-98.3868
-98.3089
-98.3093
-98.3096
-98.3097
-98.3101
-98.3107
-98.312
-98.314
-98.317
-98.321
-98.3262
-98.3326
-98.3404
-98.3496
-98.36
-98.371
-98.3829
-98.3958
-98.4098
-98.4252
-98.4439
-98.4698
-98.4992
-98.531
-98.567
-98.6166
-98.6664
-98.7353
-141.302
-141.299
-141.298
-141.297
-141.297
-141.296
-141.295
-141.292
-141.288
-141.283
-141.278
-141.273
-141.268
-141.265
-141.265
-141.268
-141.277
-141.294
-141.319
-141.353
-141.395
-141.438
-141.482
-141.53
-141.585
-141.65
-141.719
-141.798
-141.058
-141.056
-141.055
-141.054
-141.054
-141.055
-141.057
-141.06
-141.064
-141.07
-141.077
-141.087
-141.099
-141.115
-141.133
-141.154
-141.18
-141.212
-141.249
-141.297
-141.354
-141.412
-141.469
-141.53
-141.595
-141.669
-141.742
-141.843
-140.672
-140.67
-140.669
-140.667
-140.667
-140.668
-140.671
-140.676
-140.683
-140.692
-140.705
-140.72
-140.739
-140.762
-140.789
-140.821
-140.859
-140.901
-140.949
-141.002
-141.06
-141.125
-141.197
-141.274
-141.355
-141.437
-141.523
-141.632
-140.226
-140.225
-140.223
-140.222
-140.222
-140.224
-140.228
-140.234
-140.243
-140.255
-140.27
-140.289
-140.311
-140.338
-140.369
-140.404
-140.444
-140.489
-140.54
-140.595
-140.655
-140.72
-140.788
-140.86
-140.934
-141.009
-141.088
-141.189
-139.725
-139.724
-139.723
-139.722
-139.723
-139.724
-139.727
-139.733
-139.74
-139.751
-139.764
-139.78
-139.798
-139.82
-139.846
-139.874
-139.907
-139.942
-139.981
-140.023
-140.068
-140.116
-140.167
-140.218
-140.271
-140.323
-140.377
-140.44
-139.217
-139.217
-139.216
-139.216
-139.216
-139.217
-139.22
-139.224
-139.23
-139.239
-139.249
-139.261
-139.276
-139.293
-139.312
-139.334
-139.358
-139.384
-139.411
-139.441
-139.471
-139.502
-139.534
-139.565
-139.594
-139.621
-139.645
-139.67
-138.801
-138.802
-138.802
-138.802
-138.802
-138.803
-138.805
-138.808
-138.812
-138.817
-138.824
-138.831
-138.84
-138.85
-138.861
-138.873
-138.885
-138.897
-138.909
-138.92
-138.93
-138.939
-138.946
-138.951
-138.953
-138.951
-138.945
-138.944
-4.43216
-4.43216
-4.43216
-4.43216
-4.43216
-4.43216
-4.43217
-4.43218
-4.4322
-4.43223
-4.43226
-4.43231
-4.43237
-4.43244
-4.43254
-4.43266
-4.4328
-4.43298
-4.43319
-4.43344
-4.43375
-4.4341
-4.43452
-4.435
-4.43556
-4.43619
-4.43682
-4.4377
-4.43027
-4.43027
-4.43027
-4.43027
-4.43027
-4.43027
-4.43028
-4.43029
-4.43031
-4.43033
-4.43037
-4.43041
-4.43047
-4.43054
-4.43063
-4.43074
-4.43088
-4.43105
-4.43126
-4.43152
-4.43182
-4.43219
-4.43262
-4.43315
-4.43378
-4.43453
-4.43546
-4.4369
-4.42873
-4.42873
-4.42873
-4.42873
-4.42873
-4.42873
-4.42873
-4.42874
-4.42875
-4.42876
-4.42878
-4.4288
-4.42884
-4.42888
-4.42892
-4.42898
-4.42906
-4.42914
-4.42924
-4.42935
-4.42949
-4.42963
-4.4298
-4.42998
-4.4302
-4.43047
-4.43085
-4.431
-4.42746
-4.42745
-4.42745
-4.42744
-4.42744
-4.42744
-4.42744
-4.42745
-4.42746
-4.42747
-4.42749
-4.42752
-4.42755
-4.4276
-4.42765
-4.42772
-4.42781
-4.42792
-4.42804
-4.42819
-4.42837
-4.42858
-4.42882
-4.4291
-4.42941
-4.42975
-4.43013
-4.43053
-4.42609
-4.42609
-4.42608
-4.42607
-4.42607
-4.42607
-4.42606
-4.42606
-4.42606
-4.42607
-4.42608
-4.42609
-4.42611
-4.42614
-4.42617
-4.42621
-4.42626
-4.42633
-4.42641
-4.42651
-4.42662
-4.42676
-4.42692
-4.42712
-4.42734
-4.42761
-4.42792
-4.42825
-4.42505
-4.42504
-4.42503
-4.42502
-4.42502
-4.42501
-4.425
-4.425
-4.425
-4.425
-4.425
-4.42501
-4.42502
-4.42503
-4.42506
-4.42509
-4.42512
-4.42517
-4.42523
-4.42531
-4.42539
-4.4255
-4.42562
-4.42575
-4.42591
-4.42607
-4.42626
-4.42642
-4.42334
-4.42333
-4.42333
-4.42332
-4.42331
-4.4233
-4.4233
-4.42329
-4.42329
-4.42329
-4.42329
-4.4233
-4.42331
-4.42333
-4.42335
-4.42338
-4.42343
-4.42349
-4.42356
-4.42365
-4.42376
-4.42389
-4.42406
-4.42425
-4.42448
-4.42474
-4.42506
-4.42541
-4.4217
-4.42169
-4.42168
-4.42168
-4.42167
-4.42166
-4.42166
-4.42166
-4.42165
-4.42165
-4.42166
-4.42166
-4.42168
-4.42169
-4.42172
-4.42175
-4.42179
-4.42185
-4.42192
-4.42201
-4.42212
-4.42225
-4.4224
-4.42259
-4.42281
-4.42307
-4.42338
-4.42368
-4.41964
-4.41963
-4.41963
-4.41962
-4.41961
-4.41961
-4.4196
-4.4196
-4.41959
-4.41959
-4.4196
-4.4196
-4.41961
-4.41963
-4.41965
-4.41968
-4.41972
-4.41977
-4.41983
-4.41991
-4.42001
-4.42013
-4.42028
-4.42045
-4.42065
-4.4209
-4.4212
-4.42147
-4.41739
-4.41738
-4.41737
-4.41737
-4.41736
-4.41736
-4.41735
-4.41735
-4.41735
-4.41735
-4.41736
-4.41737
-4.41738
-4.4174
-4.41743
-4.41747
-4.41751
-4.41757
-4.41765
-4.41774
-4.41785
-4.41798
-4.41813
-4.41831
-4.41855
-4.41888
-4.41927
-4.4195
-4.41508
-4.41508
-4.41507
-4.41507
-4.41506
-4.41506
-4.41506
-4.41506
-4.41506
-4.41507
-4.41508
-4.4151
-4.41512
-4.41516
-4.41521
-4.41527
-4.41536
-4.41546
-4.4156
-4.41577
-4.41598
-4.41624
-4.41657
-4.417
-4.41766
-4.41858
-4.41973
-4.42094
-63.4846
-63.4851
-63.4856
-63.4862
-63.4868
-63.4875
-63.4884
-63.4894
-63.4907
-63.4921
-63.4938
-63.4957
-63.4979
-63.5004
-63.5033
-63.5066
-63.5104
-63.5148
-63.5199
-63.5255
-63.5317
-63.5386
-63.5459
-63.5538
-63.5621
-63.5708
-63.58
-63.5873
-64.0863
-64.0868
-64.0873
-64.0878
-64.0884
-64.0891
-64.0899
-64.0908
-64.0919
-64.0931
-64.0944
-64.096
-64.0977
-64.0997
-64.1021
-64.1047
-64.1079
-64.1116
-64.116
-64.121
-64.1268
-64.1334
-64.1408
-64.149
-64.158
-64.168
-64.179
-64.191
-64.7015
-64.7019
-64.7025
-64.703
-64.7035
-64.7041
-64.7048
-64.7055
-64.7063
-64.7072
-64.7082
-64.7093
-64.7106
-64.7121
-64.7139
-64.7159
-64.7184
-64.7212
-64.7247
-64.7288
-64.7337
-64.7395
-64.746
-64.7535
-64.7619
-64.7714
-64.7817
-64.7927
-65.3239
-65.3244
-65.3249
-65.3254
-65.326
-65.3265
-65.3271
-65.3278
-65.3285
-65.3292
-65.33
-65.3308
-65.3318
-65.3329
-65.3341
-65.3355
-65.337
-65.3388
-65.3409
-65.3435
-65.3467
-65.3507
-65.3554
-65.3609
-65.3673
-65.3748
-65.3827
-65.3928
-65.9562
-65.9567
-65.9573
-65.9578
-65.9584
-65.959
-65.9597
-65.9603
-65.9611
-65.9618
-65.9625
-65.9633
-65.9641
-65.9649
-65.9658
-65.9667
-65.9676
-65.9684
-65.9693
-65.9704
-65.972
-65.9742
-65.9771
-65.981
-65.9861
-65.9924
-65.9998
-66.01
-7.39957
-7.39951
-7.39945
-7.39941
-7.39939
-7.39941
-7.39949
-7.39965
-7.39994
-7.4004
-7.40108
-7.40205
-7.40342
-7.40527
-7.40774
-7.41096
-7.4151
-7.42032
-7.42682
-7.43478
-7.4444
-7.45587
-7.46939
-7.48514
-7.50328
-7.52392
-7.54748
-7.57295
-7.41772
-7.41766
-7.4176
-7.41756
-7.41755
-7.41758
-7.41767
-7.41785
-7.41815
-7.41863
-7.41935
-7.42036
-7.42176
-7.42366
-7.42617
-7.42942
-7.43357
-7.43879
-7.44524
-7.4531
-7.46256
-7.47379
-7.48695
-7.5022
-7.5197
-7.53956
-7.56188
-7.5865
-7.43561
-7.43555
-7.43549
-7.43545
-7.43545
-7.43548
-7.43559
-7.43578
-7.43611
-7.43663
-7.43738
-7.43844
-7.43989
-7.44185
-7.44442
-7.44774
-7.45195
-7.45722
-7.46369
-7.47155
-7.48095
-7.49207
-7.50506
-7.52006
-7.5372
-7.55654
-7.5783
-7.60251
-7.45196
-7.45191
-7.45185
-7.45182
-7.45181
-7.45186
-7.45197
-7.45219
-7.45254
-7.45308
-7.45387
-7.45497
-7.45647
-7.45848
-7.46111
-7.46449
-7.46876
-7.47406
-7.48056
-7.48843
-7.49781
-7.50887
-7.52176
-7.53662
-7.55357
-7.57272
-7.59431
-7.61766
-7.46765
-7.46759
-7.46754
-7.46751
-7.46751
-7.46756
-7.46769
-7.46792
-7.46829
-7.46886
-7.46967
-7.4708
-7.47235
-7.47439
-7.47705
-7.48045
-7.48473
-7.49002
-7.49648
-7.50427
-7.51352
-7.52439
-7.53702
-7.55154
-7.56806
-7.5867
-7.60749
-7.63061
-7.48189
-7.48184
-7.48179
-7.48176
-7.48177
-7.48183
-7.48196
-7.48221
-7.4826
-7.48318
-7.48402
-7.48518
-7.48675
-7.48883
-7.49151
-7.49493
-7.4992
-7.50447
-7.51088
-7.51857
-7.52768
-7.53835
-7.5507
-7.56486
-7.58094
-7.59898
-7.6192
-7.64163
-7.49514
-7.49509
-7.49504
-7.49502
-7.49503
-7.4951
-7.49524
-7.4955
-7.49591
-7.49651
-7.49737
-7.49855
-7.50015
-7.50224
-7.50493
-7.50835
-7.5126
-7.51783
-7.52417
-7.53174
-7.54069
-7.55113
-7.56319
-7.57698
-7.5926
-7.6101
-7.62975
-7.651
-7.50701
-7.50696
-7.50692
-7.5069
-7.50691
-7.50699
-7.50714
-7.50741
-7.50783
-7.50846
-7.50934
-7.51054
-7.51216
-7.51427
-7.51698
-7.5204
-7.52465
-7.52985
-7.53612
-7.54361
-7.55242
-7.56268
-7.5745
-7.58798
-7.60322
-7.6203
-7.63932
-7.65988
-7.51767
-7.51763
-7.51758
-7.51757
-7.51759
-7.51767
-7.51784
-7.51812
-7.51855
-7.51919
-7.52009
-7.52132
-7.52296
-7.52509
-7.52781
-7.53123
-7.53547
-7.54064
-7.54686
-7.55426
-7.56296
-7.57306
-7.58469
-7.59792
-7.61287
-7.62961
-7.64819
-7.66869
-139.127
-139.127
-139.128
-139.13
-139.133
-139.139
-139.146
-139.155
-139.166
-139.18
-139.195
-139.214
-139.235
-139.26
-139.288
-139.32
-139.357
-139.398
-139.446
-139.499
-139.56
-139.628
-139.705
-139.792
-139.891
-140.002
-140.126
-140.265
-139.602
-139.601
-139.602
-139.604
-139.608
-139.615
-139.625
-139.636
-139.65
-139.666
-139.685
-139.705
-139.729
-139.755
-139.784
-139.816
-139.853
-139.896
-139.946
-140.004
-140.071
-140.147
-140.227
-140.313
-140.407
-140.514
-140.632
-140.763
-4.41202
-4.41201
-4.41201
-4.412
-4.412
-4.41199
-4.41199
-4.41198
-4.41198
-4.41198
-4.41197
-4.41197
-4.41197
-4.41197
-4.41197
-4.41197
-4.41198
-4.41198
-4.41199
-4.412
-4.41201
-4.41202
-4.41204
-4.41205
-4.41204
-4.41203
-4.41201
-4.41206
-4.40963
-4.40963
-4.40962
-4.40962
-4.40961
-4.40961
-4.4096
-4.4096
-4.4096
-4.4096
-4.4096
-4.4096
-4.4096
-4.40961
-4.40962
-4.40963
-4.40965
-4.40968
-4.40971
-4.40974
-4.40978
-4.40983
-4.40988
-4.40992
-4.40997
-4.40999
-4.40998
-4.40988
-4.4063
-4.40629
-4.40629
-4.40628
-4.40628
-4.40627
-4.40627
-4.40627
-4.40627
-4.40627
-4.40627
-4.40627
-4.40628
-4.40629
-4.40631
-4.40633
-4.40636
-4.40639
-4.40644
-4.4065
-4.40657
-4.40667
-4.40678
-4.40692
-4.4071
-4.40731
-4.40757
-4.40792
-4.40354
-4.40354
-4.40353
-4.40353
-4.40352
-4.40352
-4.40351
-4.40351
-4.40351
-4.4035
-4.4035
-4.4035
-4.4035
-4.4035
-4.40351
-4.40351
-4.40352
-4.40354
-4.40355
-4.40358
-4.4036
-4.40364
-4.40368
-4.40373
-4.4038
-4.40387
-4.40398
-4.40404
-4.40006
-4.40005
-4.40005
-4.40004
-4.40004
-4.40003
-4.40003
-4.40003
-4.40003
-4.40003
-4.40003
-4.40003
-4.40004
-4.40005
-4.40007
-4.40008
-4.40011
-4.40014
-4.40018
-4.40022
-4.40027
-4.40034
-4.4004
-4.40048
-4.40056
-4.40063
-4.40076
-4.4008
-4.39701
-4.39701
-4.397
-4.397
-4.39699
-4.39699
-4.39699
-4.39699
-4.39699
-4.397
-4.397
-4.39702
-4.39703
-4.39706
-4.39709
-4.39713
-4.39718
-4.39725
-4.39734
-4.39745
-4.39758
-4.39775
-4.39797
-4.39823
-4.39856
-4.39898
-4.39961
-4.40031
-4.39307
-4.39307
-4.39307
-4.39306
-4.39306
-4.39306
-4.39305
-4.39305
-4.39305
-4.39304
-4.39304
-4.39304
-4.39304
-4.39304
-4.39304
-4.39304
-4.39304
-4.39304
-4.39304
-4.39305
-4.39305
-4.39305
-4.39306
-4.39306
-4.39305
-4.39304
-4.39299
-4.39298
-4.38988
-4.38987
-4.38987
-4.38986
-4.38986
-4.38986
-4.38986
-4.38986
-4.38986
-4.38986
-4.38987
-4.38988
-4.38989
-4.38991
-4.38993
-4.38996
-4.39
-4.39005
-4.39011
-4.39019
-4.39028
-4.39039
-4.39051
-4.39065
-4.39081
-4.39097
-4.39113
-4.39123
-4.38577
-4.38577
-4.38577
-4.38577
-4.38576
-4.38576
-4.38576
-4.38576
-4.38576
-4.38577
-4.38577
-4.38578
-4.3858
-4.38581
-4.38584
-4.38587
-4.38592
-4.38597
-4.38604
-4.38613
-4.38624
-4.38638
-4.38656
-4.38678
-4.38707
-4.38743
-4.38788
-4.38854
-4.38204
-4.38204
-4.38204
-4.38204
-4.38203
-4.38203
-4.38203
-4.38202
-4.38202
-4.38202
-4.38201
-4.38201
-4.382
-4.38199
-4.38198
-4.38197
-4.38195
-4.38193
-4.38191
-4.38188
-4.38184
-4.38179
-4.38172
-4.38163
-4.38151
-4.38136
-4.3812
-4.38091
-4.37815
-4.37814
-4.37814
-4.37814
-4.37814
-4.37813
-4.37813
-4.37813
-4.37813
-4.37814
-4.37814
-4.37815
-4.37815
-4.37817
-4.37818
-4.3782
-4.37823
-4.37826
-4.3783
-4.37835
-4.37841
-4.37847
-4.37855
-4.37863
-4.37873
-4.37883
-4.37893
-4.37893
-91.9136
-91.9111
-91.9081
-91.9056
-91.9036
-91.9035
-91.909
-91.9272
-91.9684
-92.0421
-92.1528
-92.3003
-92.4803
-92.6872
-92.9163
-93.1641
-93.4282
-93.7064
-93.9971
-94.2991
-94.6116
-94.9347
-95.2674
-95.612
-95.9648
-96.3302
-96.7069
-97.0709
-88.2432
-88.2411
-88.2385
-88.236
-88.2337
-88.2318
-88.2318
-88.238
-88.2586
-88.3058
-88.3965
-88.535
-88.7152
-88.9295
-89.1721
-89.4386
-89.7258
-90.0308
-90.3512
-90.6851
-91.0307
-91.3875
-91.7537
-92.1299
-92.5153
-92.9055
-93.3119
-93.6999
-84.7778
-84.7763
-84.774
-84.7715
-84.7689
-84.7663
-84.7642
-84.7646
-84.7734
-84.8013
-84.8652
-84.9813
-85.1519
-85.3676
-85.62
-85.9032
-86.2127
-86.5453
-86.8982
-87.2692
-87.6563
-88.0581
-88.4733
-88.9008
-89.3424
-89.7918
-90.2598
-90.7222
-117.974
-117.97
-117.969
-117.969
-117.973
-117.982
-117.997
-118.019
-118.048
-118.082
-118.122
-118.168
-118.218
-118.273
-118.334
-118.399
-118.47
-118.546
-118.629
-118.718
-118.814
-118.917
-119.028
-119.147
-119.276
-119.412
-119.56
-119.709
-114.621
-114.618
-114.616
-114.616
-114.621
-114.631
-114.649
-114.674
-114.709
-114.751
-114.8
-114.856
-114.918
-114.986
-115.059
-115.138
-115.223
-115.313
-115.411
-115.516
-115.628
-115.748
-115.876
-116.012
-116.157
-116.31
-116.473
-116.634
-54.9662
-54.9667
-54.9668
-54.9665
-54.9662
-54.9665
-54.9678
-54.9705
-54.9753
-54.9825
-54.9923
-55.0047
-55.0198
-55.0375
-55.0579
-55.081
-55.1069
-55.1345
-55.1632
-55.1922
-55.2208
-55.2488
-55.2751
-55.3015
-55.3295
-55.354
-55.374
-55.4435
-54.7994
-54.8004
-54.8011
-54.8011
-54.8006
-54.7999
-54.7992
-54.7985
-54.7976
-54.7964
-54.7948
-54.7925
-54.7893
-54.7847
-54.7788
-54.7732
-54.7679
-54.7614
-54.7534
-54.7433
-54.7305
-54.7143
-54.6936
-54.6684
-54.635
-54.5928
-54.5426
-54.5037
-54.8142
-54.8157
-54.8169
-54.8174
-54.8169
-54.8157
-54.8138
-54.8106
-54.8059
-54.799
-54.7899
-54.7778
-54.7613
-54.7398
-54.7146
-54.6888
-54.663
-54.6354
-54.6058
-54.5746
-54.5415
-54.506
-54.4678
-54.425
-54.3743
-54.3179
-54.2492
-54.176
-54.931
-54.9316
-54.9322
-54.9323
-54.9311
-54.928
-54.9227
-54.9152
-54.9049
-54.8905
-54.8712
-54.8468
-54.8179
-54.7845
-54.7462
-54.7036
-54.6576
-54.6089
-54.5589
-54.5085
-54.458
-54.4075
-54.3578
-54.3082
-54.2583
-54.2105
-54.1647
-54.1214
-55.0048
-55.0056
-55.0065
-55.0062
-55.0032
-54.9971
-54.9885
-54.9783
-54.9655
-54.9476
-54.9234
-54.892
-54.8522
-54.8027
-54.7447
-54.6832
-54.6206
-54.5564
-54.4909
-54.4249
-54.3568
-54.2843
-54.2069
-54.1231
-54.0307
-53.9275
-53.8085
-53.6633
-139.133
-139.132
-139.132
-139.134
-139.139
-139.147
-139.158
-139.172
-139.19
-139.21
-139.232
-139.256
-139.282
-139.31
-139.34
-139.375
-139.415
-139.46
-139.511
-139.568
-139.633
-139.703
-139.779
-139.864
-139.957
-140.061
-140.177
-140.305
-125.05
-125.054
-125.059
-125.066
-125.074
-125.086
-125.101
-125.12
-125.144
-125.173
-125.208
-125.247
-125.294
-125.348
-125.412
-125.486
-125.572
-125.67
-125.782
-125.911
-126.057
-126.223
-126.411
-126.622
-126.856
-127.119
-127.423
-127.734
-138.518
-138.517
-138.516
-138.517
-138.52
-138.525
-138.532
-138.541
-138.553
-138.568
-138.584
-138.604
-138.627
-138.652
-138.681
-138.715
-138.753
-138.796
-138.846
-138.902
-138.966
-139.036
-139.113
-139.199
-139.293
-139.397
-139.51
-139.634
-137.637
-137.636
-137.635
-137.636
-137.639
-137.643
-137.65
-137.659
-137.671
-137.685
-137.701
-137.72
-137.742
-137.766
-137.794
-137.826
-137.862
-137.904
-137.951
-138.004
-138.065
-138.134
-138.212
-138.298
-138.395
-138.501
-138.618
-138.736
-86.4415
-86.4422
-86.4432
-86.4445
-86.4462
-86.4485
-86.4516
-86.456
-86.4617
-86.4692
-86.4787
-86.4906
-86.5054
-86.5235
-86.5457
-86.573
-86.6058
-86.6439
-86.6866
-86.7333
-86.7838
-86.8384
-86.8975
-86.9612
-87.03
-87.106
-87.1922
-87.2817
-87.8551
-87.8561
-87.8575
-87.8591
-87.8611
-87.8638
-87.8672
-87.8717
-87.8773
-87.8842
-87.8923
-87.902
-87.9134
-87.9269
-87.9429
-87.9619
-87.9842
-88.01
-88.0395
-88.0732
-88.1114
-88.1546
-88.203
-88.2569
-88.3165
-88.3838
-88.4605
-88.5382
-89.2776
-89.2786
-89.2797
-89.281
-89.2826
-89.2848
-89.2877
-89.2917
-89.2967
-89.3031
-89.311
-89.3203
-89.3312
-89.3438
-89.3582
-89.3745
-89.3927
-89.4131
-89.4365
-89.4639
-89.4957
-89.5322
-89.574
-89.6212
-89.6738
-89.7314
-89.7951
-89.8693
-90.7501
-90.7509
-90.7519
-90.7528
-90.7541
-90.7557
-90.758
-90.7611
-90.7652
-90.7705
-90.7771
-90.7853
-90.7951
-90.8066
-90.8198
-90.8349
-90.8519
-90.8707
-90.8916
-90.9152
-90.9419
-90.9721
-91.006
-91.0438
-91.0862
-91.1331
-91.1813
-91.2339
-133.173
-133.174
-133.176
-133.178
-133.182
-133.187
-133.195
-133.204
-133.216
-133.231
-133.249
-133.271
-133.297
-133.327
-133.362
-133.402
-133.449
-133.503
-133.565
-133.637
-133.718
-133.81
-133.915
-134.033
-134.165
-134.315
-134.481
-134.672
-139.478
-139.478
-139.479
-139.481
-139.485
-139.491
-139.499
-139.509
-139.521
-139.536
-139.554
-139.574
-139.597
-139.624
-139.655
-139.689
-139.728
-139.772
-139.82
-139.874
-139.934
-140.001
-140.078
-140.166
-140.266
-140.378
-140.501
-140.64
-123.209
-123.214
-123.222
-123.231
-123.244
-123.261
-123.28
-123.303
-123.33
-123.362
-123.399
-123.443
-123.498
-123.564
-123.642
-123.734
-123.841
-123.967
-124.112
-124.28
-124.472
-124.691
-124.941
-125.222
-125.538
-125.898
-126.315
-126.738
-139.485
-139.484
-139.484
-139.488
-139.495
-139.507
-139.523
-139.542
-139.564
-139.588
-139.613
-139.639
-139.665
-139.69
-139.717
-139.748
-139.783
-139.824
-139.871
-139.927
-139.991
-140.064
-140.144
-140.233
-140.33
-140.44
-140.562
-140.7
-135.762
-135.762
-135.764
-135.766
-135.77
-135.775
-135.781
-135.79
-135.801
-135.815
-135.831
-135.851
-135.874
-135.901
-135.932
-135.968
-136.01
-136.058
-136.112
-136.175
-136.247
-136.328
-136.421
-136.525
-136.643
-136.776
-136.924
-137.091
-136.86
-136.861
-136.862
-136.864
-136.868
-136.873
-136.879
-136.888
-136.899
-136.912
-136.928
-136.947
-136.969
-136.995
-137.025
-137.059
-137.099
-137.145
-137.196
-137.256
-137.324
-137.401
-137.488
-137.587
-137.699
-137.824
-137.964
-138.128
-605.843
-605.697
-605.07
-603.771
-601.996
-600.022
-597.973
-595.639
-593.038
-591.683
-592.515
-594.828
-596.458
-595.222
-591.183
-585.308
-578.509
-571.251
-563.726
-556.086
-548.228
-539.873
-531.035
-521.687
-511.928
-501.842
-491.153
-480.639
-612.138
-612.184
-612.115
-611.726
-610.841
-609.366
-607.258
-604.287
-600.143
-595.444
-591.329
-587.967
-584.48
-580.288
-575.508
-570.24
-564.497
-558.285
-551.613
-544.435
-536.781
-528.689
-520.245
-511.358
-502.241
-492.592
-482.84
-472.599
-657.912
-657.951
-658.063
-658.175
-658.1
-657.385
-655.145
-650.547
-643.787
-636.474
-629.268
-621.534
-613.316
-604.899
-596.348
-587.699
-578.962
-570.117
-561.135
-552.004
-542.72
-533.272
-523.676
-513.894
-503.997
-493.795
-483.66
-472.919
-655.475
-655.407
-655.273
-654.956
-654.239
-652.816
-650.534
-647.139
-642.226
-635.648
-627.968
-619.882
-611.667
-603.346
-594.93
-586.41
-577.757
-568.946
-559.971
-550.827
-541.526
-532.07
-522.477
-512.724
-502.856
-492.785
-482.721
-472.225
-664.605
-664.571
-664.426
-663.926
-662.666
-660.207
-656.372
-651.122
-644.704
-637.56
-629.947
-621.994
-613.777
-605.36
-596.781
-588.041
-579.128
-570.03
-560.746
-551.283
-541.651
-531.857
-521.911
-511.787
-501.527
-491.054
-480.48
-469.717
-676.955
-676.866
-676.493
-675.389
-673.133
-669.426
-664.247
-657.848
-650.546
-642.615
-634.293
-625.751
-617.082
-608.317
-599.439
-590.411
-581.208
-571.821
-562.259
-552.536
-542.669
-532.665
-522.53
-512.257
-501.88
-491.317
-480.788
-469.95
-683.189
-683.012
-682.335
-680.697
-677.692
-673.184
-667.268
-660.193
-652.309
-643.933
-635.277
-626.444
-617.481
-608.397
-599.172
-589.779
-580.2
-570.436
-560.496
-550.396
-540.147
-529.751
-519.205
-508.508
-497.658
-486.627
-475.517
-464.241
-687.951
-687.56
-686.504
-684.381
-680.824
-675.728
-669.251
-661.702
-653.427
-644.701
-635.712
-626.583
-617.363
-608.058
-598.634
-589.054
-579.297
-569.364
-559.271
-549.037
-538.675
-528.192
-517.591
-506.873
-496.04
-485.071
-474.136
-462.866
-684.431
-684.18
-683.145
-680.867
-677.12
-671.821
-665.133
-657.382
-648.911
-639.998
-630.848
-621.57
-612.203
-602.741
-593.147
-583.38
-573.419
-563.264
-552.932
-542.441
-531.804
-521.021
-510.098
-499.03
-487.804
-476.456
-465.017
-453.417
-138.551
-138.551
-138.552
-138.554
-138.557
-138.562
-138.569
-138.577
-138.587
-138.6
-138.615
-138.632
-138.653
-138.677
-138.704
-138.736
-138.772
-138.813
-138.86
-138.913
-138.974
-139.043
-139.121
-139.21
-139.311
-139.425
-139.55
-139.687
-136.457
-136.456
-136.456
-136.456
-136.459
-136.464
-136.472
-136.482
-136.495
-136.51
-136.528
-136.548
-136.571
-136.597
-136.627
-136.66
-136.697
-136.74
-136.787
-136.841
-136.901
-136.97
-137.048
-137.135
-137.233
-137.342
-137.464
-137.59
-137.788
-137.789
-137.79
-137.792
-137.795
-137.8
-137.806
-137.815
-137.825
-137.838
-137.853
-137.871
-137.892
-137.916
-137.944
-137.977
-138.015
-138.058
-138.107
-138.163
-138.227
-138.3
-138.383
-138.476
-138.582
-138.702
-138.832
-138.986
-63.1151
-63.1153
-63.1154
-63.1157
-63.116
-63.1163
-63.1168
-63.1174
-63.118
-63.1187
-63.1195
-63.1205
-63.1215
-63.1228
-63.1244
-63.1264
-63.1289
-63.1323
-63.1367
-63.143
-63.1505
-63.1621
-63.1741
-63.1944
-63.2139
-63.2464
-63.2721
-63.3551
-63.3145
-63.3147
-63.3147
-63.3148
-63.3148
-63.3149
-63.315
-63.3151
-63.3152
-63.3152
-63.3152
-63.3149
-63.3143
-63.3135
-63.3123
-63.3107
-63.3087
-63.3065
-63.3038
-63.3013
-63.2979
-63.296
-63.2918
-63.2933
-63.2882
-63.2951
-63.2924
-63.3235
-63.582