/*--------------------------------*- C++ -*----------------------------------*\
| =========                 |                                                 |
| \\      /  F ield         | OpenFOAM: The Open Source CFD Toolbox           |
|  \\    /   O peration     | Version:  2412                                  |
|   \\  /    A nd           | Website:  www.openfoam.com                      |
|    \\/     M anipulation  |                                                 |
\*---------------------------------------------------------------------------*/
FoamFile
{
    version     2.0;
    format      ascii;
    arch        "LSB;label=32;scalar=64";
    class       volVectorField;
    location    "4500";
    object      wallShearStress;
}
// * * * * * * * * * * * * * * * * * * * * * * * * * * * * * * * * * * * * * //

dimensions      [0 2 -2 0 0 0 0];

internalField   uniform (0 0 0);

boundaryField
{
    frontAndBack
    {
        type            empty;
    }
    symmetry
    {
        type            symmetryPlane;
    }
    outlet
    {
        type            calculated;
        value           uniform (0 0 0);
    }
    wall
    {
        type            calculated;
        value           nonuniform List<vector> 
1155
(
(0.0239426 -0.00142314 -2.04039e-23)
(0.0237368 -0.00138024 2.60624e-21)
(0.0235847 -0.00134195 1.01702e-23)
(0.023429 -0.00130296 2.59564e-21)
(0.0232544 -0.0012637 2.85223e-27)
(0.0231072 -0.00122691 -2.57526e-21)
(0.0229625 -0.00119015 -1.96664e-26)
(0.0228269 -0.00115399 -1.00668e-23)
(0.022635 -0.001115 -2.58036e-21)
(0.0224788 -0.00108027 2.5758e-21)
(0.0223378 -0.00104464 1.83671e-40)
(-0.181036 0.000612039 0)
(-0.201716 0.000532521 0)
(-0.221434 0.000444985 0)
(-0.236881 0.000333047 0)
(-0.251072 0.000359906 0)
(-0.26589 0.000340794 0)
(-0.41772 -0.000224629 0)
(-0.407769 -0.00019987 0)
(-0.398685 -0.00021529 0)
(-0.388971 -0.000225286 0)
(-0.379044 -0.000257741 0)
(-0.121762 -0.00304534 0)
(0.00573531 -0.00260374 0)
(0.098168 -0.00189636 0)
(0.166272 -0.00186375 0)
(0.245931 -0.00205015 0)
(0.332895 -0.00174406 0)
(-0.252096 -0.000775239 0)
(-0.227559 -0.000365654 0)
(-0.216813 -6.29353e-05 0)
(-0.211844 -0.00012833 0)
(-0.205975 -0.00012792 0)
(-0.198611 -0.00029844 0)
(-0.192118 0.0244055 -2.94157e-24)
(-0.232641 0.0287819 1.55901e-19)
(-0.275633 0.034285 -1.5048e-24)
(-0.30879 0.03849 3.08903e-19)
(-0.331231 0.0414419 6.17155e-19)
(-0.341298 0.0427694 -5.98772e-22)
(-0.332775 0.0418048 3.0684e-19)
(0.0177096 -9.62527e-05 -6.1502e-22)
(0.017741 -7.46285e-05 5.73972e-42)
(0.017713 -5.36115e-05 -3.99341e-39)
(0.017781 -3.38706e-05 -7.69467e-23)
(0.0178691 -1.35436e-05 3.84609e-23)
(0.0180476 -4.57084e-06 0)
(0.0182519 -3.9684e-06 0)
(0.0184113 -3.99569e-06 0)
(0.0185956 -3.59795e-06 0)
(0.0187296 -3.58741e-06 0)
(0.0189171 -3.39863e-06 0)
(-0.199272 -0.000188271 0)
(-0.189766 -0.000207968 0)
(-0.179632 -0.000208265 0)
(-0.169687 -0.000203212 0)
(-0.160092 -0.000180792 0)
(0.013769 -0.00911114 3.21476e-25)
(0.0149262 -0.00963986 -1.28903e-22)
(0.0160745 -0.0101408 -1.29497e-22)
(0.0172567 -0.01064 -1.00411e-25)
(0.0183989 -0.0110949 -3.31249e-20)
(0.0195558 -0.0115391 -4.70198e-38)
(0.0206745 -0.0119439 3.33737e-20)
(0.0217921 -0.0123326 1.66063e-25)
(0.0228838 -0.0126918 -3.34711e-20)
(0.616636 0.000503943 0)
(0.575457 0.000952483 0)
(0.0190017 -1.84491e-06 0)
(0.0191182 -3.1253e-06 0)
(0.019243 -1.98491e-06 0)
(0.0193263 -2.47997e-06 0)
(0.0194369 -2.2141e-06 0)
(0.0195467 -2.47705e-06 0)
(0.0196205 -1.24872e-06 0)
(0.0196954 -2.48623e-06 0)
(0.0198035 -1.08702e-06 0)
(0.0198118 -1.13808e-06 0)
(0.019902 -1.6428e-06 0)
(-0.397067 0.000934364 0)
(-0.438481 0.000580473 0)
(-0.464641 0.000197534 0)
(0.0200131 0.00189886 0)
(-0.0390566 0.00213937 0)
(-0.487579 -0.000786652 0)
(-0.459087 -0.000998091 0)
(-0.437947 -0.000817402 0)
(-0.419215 -0.000246344 0)
(-0.412611 -1.05826e-05 0)
(0.51757 0.000942722 0)
(0.347106 -0.00193942 0)
(0.482467 0.000954396 0)
(0.443174 0.000969194 0)
(0.165722 -0.000205696 0)
(0.179473 -0.000429091 0)
(0.206841 -0.00048005 0)
(0.221805 -0.000393268 0)
(0.604408 -0.000327363 0)
(0.599901 0.000674955 0)
(0.154757 -0.0027171 0)
(0.549801 0.000941271 0)
(0.629203 -1.53149e-05 0)
(0.633482 0.000121765 0)
(-0.108348 0.741396 9.40395e-38)
(-0.0629237 -0.331872 -1.57191e-21)
(-0.0217403 -0.277478 -1.25248e-20)
(0.040695 0.0672278 -5.37754e-22)
(0.074485 0.222466 -2.47159e-23)
(0.331299 0.700835 2.98631e-18)
(0.806989 1.38847 2.96413e-18)
(1.36499 1.71443 3.84897e-22)
(1.70306 1.93543 5.84326e-18)
(0.62721 0.00035488 0)
(0.402642 0.000967938 0)
(0.632542 0.000226773 0)
(-0.331732 -3.44889e-05 0)
(-0.329143 -0.000139234 0)
(-0.322721 -0.000185277 0)
(-0.314853 -0.000109772 0)
(-0.312138 0.000231661 0)
(0.313794 0.00102076 0)
(0.516023 -0.000876548 0)
(0.269452 0.000980157 0)
(0.581905 -0.000504536 0)
(0.35959 0.00102425 0)
(0.552918 -0.000684042 0)
(0.620009 -0.000151444 0)
(0.178126 0.000995368 0)
(0.197625 -0.00418881 0)
(0.389595 0.000538826 0)
(0.371679 0.000592132 0)
(0.350489 0.000751218 0)
(0.33194 0.000903013 0)
(0.309653 0.000638877 0)
(-0.242552 -0.0808314 0)
(0.405546 -0.00153435 0)
(-0.367627 -0.000466001 0)
(0.0571558 0.00456021 0)
(-0.326637 7.67965e-05 0)
(-0.402923 0.000309532 0)
(-0.324375 0.00058495 0)
(-0.308701 -0.000100485 0)
(-0.306585 -8.47676e-05 0)
(-0.304008 -9.1812e-05 0)
(-0.301288 -6.52388e-05 0)
(-0.29923 -5.78439e-05 0)
(-0.297276 -2.79904e-05 0)
(0.0344434 -0.00515375 -2.42231e-23)
(0.0342752 -0.00506991 -1.23811e-20)
(0.0341199 -0.00498913 2.41414e-23)
(0.0339585 -0.00490816 -1.22974e-20)
(0.0337979 -0.00482739 -2.93874e-39)
(0.0335396 -0.00473338 2.38161e-23)
(0.0333359 -0.00465158 -1.21979e-20)
(0.0331647 -0.00457285 7.31745e-37)
(0.0329893 -0.00449603 1.00597e-26)
(0.0328485 -0.00442287 -4.78291e-40)
(-0.0773667 -0.000686277 0)
(-0.0512192 -0.000625623 0)
(-0.0251734 -0.000843598 0)
(0.0145791 -0.00211742 0)
(0.121984 -0.00406346 0)
(0.278733 -0.00112806 0)
(0.448495 0.000224187 0)
(0.442247 0.000279656 0)
(0.433333 0.00036208 0)
(0.421217 0.000444242 0)
(0.40624 0.000501485 0)
(-0.0804898 -0.000777687 0)
(-0.0465112 -0.000473595 0)
(-0.0175178 -0.000511719 0)
(0.00610845 -0.000726612 0)
(0.026003 -0.000451478 0)
(0.42482 -0.000120085 0)
(0.431905 -0.000122652 0)
(0.439257 -9.33727e-05 0)
(0.444686 -5.46352e-05 0)
(0.449147 -5.5657e-05 0)
(0.00468652 -0.00401919 -6.42571e-20)
(0.00558151 -0.00462626 1.26051e-22)
(0.00637825 -0.00512285 1.29025e-19)
(0.00739542 -0.00575819 6.49524e-20)
(0.00828643 -0.00626438 6.5019e-20)
(0.00937089 -0.00688648 -3.27325e-20)
(0.0104091 -0.00743979 3.28234e-20)
(0.0114961 -0.00800285 3.26592e-20)
(0.0126284 -0.00856694 2.56663e-22)
(0.0945723 -0.00709786 -3.39894e-22)
(0.0681906 -0.00472374 5.67366e-24)
(0.0339107 0.000167073 1.98705e-22)
(-0.0466015 0.00423087 -3.40448e-22)
(-0.0569767 0.00414886 -2.35099e-38)
(-0.0548964 0.00440287 -1.73448e-19)
(-0.0721928 0.00627139 7.88492e-25)
(0.16153 -0.0328918 1.49678e-21)
(0.135955 -0.0276545 -1.4079e-21)
(0.103234 -0.0208965 -3.59685e-19)
(0.0579802 -0.0109338 2.77805e-21)
(0.000695917 0.00204211 -1.38389e-21)
(-0.0688052 0.0173386 0)
(-0.144406 0.0341185 -3.41286e-19)
(0.286964 0.000621587 0)
(0.263235 0.000608776 0)
(0.237477 0.000633359 0)
(0.210403 0.00063959 0)
(0.181937 0.00065993 0)
(0.0229507 -2.57917e-06 0)
(0.0230737 -2.58615e-06 0)
(0.0231944 -2.71018e-06 0)
(0.0233248 -2.81197e-06 0)
(0.0234571 -2.90755e-06 0)
(0.0235945 -2.95481e-06 0)
(0.0237325 -3.04006e-06 0)
(0.0238781 -3.15345e-06 0)
(0.0240241 -3.19157e-06 0)
(0.0241775 -3.37577e-06 0)
(0.0243352 -3.40412e-06 0)
(0.0244965 -3.53273e-06 0)
(0.0246611 -3.57255e-06 0)
(0.0248318 -3.77303e-06 0)
(-0.135562 -0.00288175 0)
(-0.0127347 -0.00342341 0)
(0.0896529 0.000887024 0)
(0.035229 0.00230866 0)
(-0.140458 0.00542474 0)
(-0.284628 -0.000223849 0)
(0.0321512 -0.014894 1.24972e-25)
(0.0328846 -0.014987 3.35744e-20)
(0.0335632 -0.0150528 3.34837e-20)
(0.0342238 -0.0151092 -3.33885e-20)
(0.0348669 -0.0151558 3.33536e-20)
(0.0354691 -0.0151828 6.53622e-23)
(0.0360336 -0.015193 -3.47946e-36)
(0.0365666 -0.0151894 -3.32884e-20)
(0.0370565 -0.015168 -3.33666e-20)
(0.0421591 -0.0132613 3.16465e-20)
(0.0422206 -0.0131214 0)
(0.0422756 -0.0129828 -1.4677e-26)
(0.0423238 -0.012843 6.26675e-20)
(0.0422855 -0.0126809 0)
(0.0423383 -0.0125504 -2.05368e-36)
(0.0423536 -0.0124079 -6.32999e-37)
(0.0423508 -0.0122649 -6.02633e-23)
(0.042366 -0.0121274 6.0265e-23)
(-0.462504 -0.00100801 0)
(-0.433543 -0.00101529 0)
(-0.404365 -0.000482398 0)
(-0.389673 -0.000330045 0)
(0.0282405 -6.37138e-06 0)
(0.0285412 -6.61915e-06 0)
(0.0288546 -6.91565e-06 0)
(0.0291807 -7.16451e-06 0)
(0.0295189 -7.4979e-06 0)
(0.0298749 -7.82231e-06 0)
(0.0302424 -8.11266e-06 0)
(0.0306275 -8.53336e-06 0)
(0.0310313 -8.90937e-06 0)
(0.0314529 -9.35325e-06 0)
(0.0318963 -9.81312e-06 0)
(0.0323606 -1.02872e-05 0)
(0.0328478 -1.08291e-05 0)
(0.0333624 -1.14361e-05 0)
(0.0339042 -1.20393e-05 0)
(-0.347071 -0.00023264 0)
(-0.333154 -0.000210472 0)
(-0.323581 -4.59864e-05 0)
(-0.324161 6.18239e-05 0)
(0.207769 -0.00036235 0)
(0.102476 0.00789703 0)
(-0.0755574 0.00368234 0)
(-0.079297 -0.00103091 0)
(-0.075211 0.00208224 0)
(-0.133741 0.000595439 0)
(-0.24714 -0.000185316 0)
(-0.237606 -0.00019698 0)
(-0.227938 -0.00021114 0)
(-0.217798 -0.000208944 0)
(-0.208249 -0.000194902 0)
(-0.0396679 0.00142305 0)
(-0.0869589 0.00141754 0)
(-0.135407 0.0011931 0)
(-0.184099 0.000936146 0)
(-0.230212 0.000936157 0)
(0.0206193 -7.7285e-07 0)
(0.0206023 5.87072e-07 0)
(0.0206109 -1.03464e-06 0)
(0.0206512 3.70149e-09 0)
(0.0206392 -6.4614e-07 0)
(0.0206844 -2.79127e-07 0)
(0.0206747 -1.37772e-07 0)
(0.0206888 -1.28376e-07 0)
(0.0206917 -1.33995e-07 0)
(0.0206937 4.1524e-08 0)
(0.0206947 -1.48353e-07 0)
(-0.427231 0.000610806 0)
(-0.445333 0.000395608 0)
(-0.460741 0.000416276 0)
(-0.475406 0.000137086 0)
(-0.481492 2.58589e-06 0)
(0.0315944 0.00343667 1.03732e-18)
(-0.931203 0.729184 1.56311e-18)
(-0.789676 0.612733 -1.49213e-19)
(-0.367947 0.251667 1.61139e-18)
(0.377963 -0.311652 -3.71225e-21)
(-0.0317683 0.052945 -7.7112e-24)
(-0.42203 0.389418 4.16149e-23)
(-0.593583 0.529689 -3.27906e-23)
(-0.0336703 -0.0047655 2.0486e-18)
(0.000239805 0.00239796 -2.35099e-38)
(-4.93493e-05 0.00174324 1.90002e-21)
(-0.000139384 0.00182249 2.53466e-38)
(-0.000240491 0.00183938 0)
(-0.000299423 0.00166015 1.52599e-20)
(-0.000418577 0.0018007 -3.05824e-20)
(-0.000455526 0.00161165 -3.05703e-20)
(-0.000559499 0.00167734 -1.19881e-22)
(-0.000589684 0.00153412 -3.06849e-20)
(0.0391369 -0.00805588 1.3786e-20)
(0.0389782 -0.00793737 5.35534e-23)
(0.0388457 -0.00782581 -5.35546e-23)
(0.0386873 -0.00771011 -2.72674e-20)
(0.0385345 -0.00759768 -1.35836e-20)
(0.0383798 -0.00748581 -5.27787e-23)
(0.0382167 -0.00737408 1.35368e-20)
(0.0380635 -0.0072657 -5.87747e-39)
(0.0379078 -0.00715827 -0)
(1.92606 1.8012 5.79476e-18)
(1.83 1.42006 1.20371e-35)
(1.35915 0.846868 -1.38676e-18)
(0.844284 0.408101 5.10753e-19)
(0.486446 0.189821 0)
(-0.369794 -0.014427 -5.96716e-21)
(-2.34456 -0.304359 3.12649e-18)
(-2.75415 -0.00418592 -8.49646e-19)
(-0.00780068 0.0422802 3.12404e-20)
(-0.689051 0.447147 -5.83688e-21)
(-0.876726 0.570244 -7.87156e-19)
(-0.935083 0.611436 0)
(-0.716082 0.463828 5.14543e-22)
(-0.14928 0.0836954 -7.52316e-37)
(0.352279 -0.251486 8.60441e-19)
(0.366231 -0.249363 1.71466e-19)
(0.0829365 -0.0166841 -3.48768e-19)
(0.11115 -0.0221492 -1.46937e-39)
(0.142177 -0.0283872 -3.52511e-19)
(0.167387 -0.0332604 3.56276e-19)
(0.175007 -0.0348591 3.56871e-19)
(0.179915 -0.0360383 -3.59899e-19)
(0.181021 -0.0364662 1.38582e-21)
(0.17152 -0.0349894 -1.29447e-22)
(0.0940741 -0.0298787 -6.37418e-19)
(0.111401 -0.0359323 0)
(0.137171 -0.044847 6.45698e-19)
(0.170069 -0.0562121 6.53135e-19)
(0.207746 -0.0692471 1.50463e-36)
(0.244056 -0.0819808 -1.3286e-18)
(0.274359 -0.0928859 -1.3206e-21)
(-0.312026 0.0393393 -3.06315e-19)
(-0.277347 0.0343456 -5.34231e-27)
(-0.24681 0.0312568 -4.57526e-22)
(-0.209534 0.0269996 5.98226e-22)
(-0.175861 0.0229744 2.48194e-24)
(-0.147082 0.0195349 -6.03536e-22)
(0.0483146 -3.7147e-05 0)
(0.0501155 -4.16587e-05 0)
(0.0521368 -4.69984e-05 0)
(0.0544283 -5.37651e-05 0)
(0.0570608 -6.21807e-05 0)
(0.0601171 -7.30539e-05 0)
(0.0637335 -8.75847e-05 0)
(0.0680982 -0.000107526 0)
(0.0735052 -0.000136355 0)
(0.0804417 -0.000180489 0)
(0.089752 -0.000253562 0)
(0.103063 -0.000380986 0)
(0.123302 -0.000663097 0)
(0.160378 -0.00133572 0)
(-0.403761 0.0349964 3.16235e-22)
(-0.364884 0.0316905 -3.16423e-22)
(-0.321211 0.0281698 -1.59766e-19)
(-0.281187 0.024976 -3.17225e-19)
(-0.244402 0.0219313 1.5768e-19)
(-0.207996 0.0187858 4.70198e-38)
(0.0200798 -6.10372e-07 0)
(0.0201109 -7.39341e-07 0)
(0.020148 -7.60597e-07 0)
(0.0201848 -8.39532e-07 0)
(0.0202254 -8.15066e-07 0)
(0.0202627 -7.55649e-07 0)
(0.0202976 -9.04721e-07 0)
(0.0203533 -1.1966e-06 0)
(0.0204024 -9.00983e-07 0)
(0.0204455 -1.02902e-06 0)
(0.0204937 -9.88207e-07 0)
(0.0205443 -1.17814e-06 0)
(0.020597 -1.01447e-06 0)
(0.0206448 -1.15357e-06 0)
(-0.00746935 0.0022676 -9.19285e-37)
(-0.0679293 0.00425001 -2.18106e-41)
(-0.124743 0.00614476 7.49796e-39)
(-0.169669 0.00740278 5.87747e-39)
(-0.195768 0.00825593 -8.7985e-20)
(-0.201157 0.00827285 -8.72439e-20)
(0.636184 -0.00363704 1.37753e-39)
(0.641752 -0.00446163 -1.4327e-36)
(0.64691 -0.0052247 1.53855e-41)
(0.647044 -0.00588329 -2.89528e-26)
(0.643285 -0.00657609 -2.26344e-20)
(0.635755 -0.0071607 -9.01537e-23)
(-0.0855832 0.288892 0)
(-0.355371 1.23345 2.23861e-21)
(-0.668559 1.83953 1.16055e-20)
(-1.45611 2.84981 4.29776e-21)
(0.830944 -5.49288 8.10587e-19)
(1.89043 -10.4372 -1.32148e-18)
(0.743128 -3.13273 3.44481e-19)
(-0.299673 4.56266 7.27428e-19)
(0.471297 -0.00119033 0)
(-0.0903135 0.0291608 -5.64413e-19)
(0.562394 -0.312579 -8.26229e-19)
(0.405935 -0.211262 -1.56627e-20)
(-0.00483118 0.0278752 -1.40171e-22)
(-0.655703 0.385351 -7.7901e-19)
(-0.496442 0.268484 5.35793e-22)
(0.0899797 -0.0760815 -7.83363e-19)
(0.371637 -0.216903 7.52316e-37)
(0.0406452 -0.0144934 -3.25954e-20)
(0.0408672 -0.0143842 -3.24462e-20)
(0.0410892 -0.0142767 -6.34086e-23)
(0.0412757 -0.0141593 -3.22668e-20)
(0.0414571 -0.0140424 3.2174e-20)
(0.041616 -0.0139201 -3.21423e-20)
(0.041761 -0.0137953 -6.24935e-23)
(0.0418801 -0.0136643 6.24954e-23)
(0.0419916 -0.0135335 -3.17872e-20)
(0.0420772 -0.0133965 -6.21075e-23)
(0.548715 -0.000521642 0)
(0.57286 -0.000556965 0)
(0.594184 -0.000755595 -1.53131e-41)
(0.607628 -0.00139884 1.1585e-37)
(0.61884 -0.00215515 5.12892e-21)
(0.62867 -0.00287769 -1.04398e-20)
(-0.0713039 0.00313111 6.21843e-23)
(-0.0589113 0.00248825 3.5499e-25)
(-0.0460397 0.00222972 -2.86986e-42)
(-0.0330791 0.00174965 -2.60694e-23)
(-0.0394472 0.00262157 -4.12312e-22)
(-0.0589421 0.0039382 -8.56869e-20)
(-0.072465 0.00424548 -1.97979e-22)
(-0.522915 -0.000241492 0)
(-0.513346 -0.000391884 0)
(-0.501399 -0.00041538 0)
(-0.489207 -0.00069806 0)
(-0.232835 0.00150681 0)
(-0.234039 0.00012574 0)
(-0.237056 -0.00127851 0)
(-0.130248 -0.000958188 0)
(-0.0843867 -0.000247425 0)
(-0.0819946 -3.13186e-05 0)
(0.243235 -0.000480826 0)
(0.258223 -0.000336867 0)
(0.267264 -0.000254428 0)
(0.27621 -0.000183593 0)
(0.282894 -0.000173435 0)
(0.0307522 -0.00356586 -5.84845e-21)
(0.0305543 -0.00349593 4.51989e-23)
(0.0303835 -0.00343276 5.74587e-21)
(0.0302479 -0.00337165 -5.36002e-27)
(0.0300786 -0.00330914 -5.7344e-21)
(0.0299545 -0.00325092 -5.71737e-21)
(0.0297845 -0.0031885 -5.70085e-21)
(0.0295919 -0.00312396 5.68399e-21)
(0.0294047 -0.00306256 0)
(0.0292482 -0.00300401 -2.20463e-23)
(-0.408711 -0.000256901 0)
(-0.398526 -0.000505588 0)
(0.0754581 0.00105537 0)
(0.128298 0.00100024 0)
(-0.100751 0.0016122 0)
(-0.16427 0.0014849 0)
(-0.228766 0.00149354 0)
(-0.29107 0.00103164 0)
(-0.346323 0.00108479 0)
(0.0423219 -0.0119768 -5.98399e-23)
(0.0423205 -0.0118391 -3.05238e-20)
(0.042186 -0.0116672 3.04134e-20)
(0.0421673 -0.0115334 -3.03071e-20)
(0.0421312 -0.0113925 -3.02547e-20)
(0.0420616 -0.0112477 -1.17549e-38)
(0.0420306 -0.0111131 7.50755e-39)
(0.0419349 -0.0109652 -5.83415e-23)
(0.0418656 -0.0108255 2.98738e-20)
(0.0417564 -0.0106783 -2.97059e-20)
(-0.379866 -0.000574266 0)
(-0.366192 -0.000183161 0)
(-0.3661 0.000389547 0)
(-0.382774 0.000749306 0)
(-0.410062 0.000907157 0)
(-0.534773 2.20572e-05 0)
(-0.536127 -0.000207947 0)
(-0.53008 -0.000251573 0)
(-0.526652 -0.000206903 0)
(-0.0360547 -0.00411507 0)
(0.0290901 -0.002946 -5.592e-21)
(0.0288896 -0.00288315 -6.15522e-26)
(0.0286987 -0.00282473 -4.37802e-23)
(0.0285507 -0.00276929 2.18628e-23)
(0.0283776 -0.00271343 5.5959e-21)
(0.028256 -0.00266112 -1.09019e-23)
(0.0280298 -0.00260013 -1.08424e-23)
(0.027883 -0.00254906 1.07847e-23)
(0.0277308 -0.00249609 -1.07848e-23)
(0.0275674 -0.00244383 5.02548e-27)
(-0.151346 -0.000157466 0)
(-0.143587 -0.000114808 0)
(-0.137852 -7.20354e-05 0)
(-0.133683 -4.07659e-05 0)
(-0.131595 -2.81244e-06 0)
(-0.131194 2.26495e-05 0)
(-0.131345 4.74432e-05 0)
(-0.13336 0.000121759 0)
(-0.137439 0.00017329 0)
(0.0193865 2.59363e-08 0)
(0.0193839 -1.20197e-08 0)
(0.0193898 -4.78646e-08 0)
(0.0193889 5.72643e-08 0)
(0.0193905 -1.19853e-07 0)
(0.0193999 -1.29844e-07 0)
(0.0194056 -1.71741e-07 0)
(0.0194169 -1.58874e-07 0)
(0.0194209 -1.35805e-07 0)
(0.0194341 -2.7936e-07 0)
(0.0194436 -1.54017e-07 0)
(0.0194546 -3.13306e-07 0)
(0.019469 -2.30414e-07 0)
(-0.295037 -0.000178829 0)
(-0.285359 -0.000207451 0)
(-0.274489 -0.000202344 0)
(-0.264167 -0.000209828 0)
(-0.25498 -0.000167471 0)
(-0.100657 0.0314762 -6.5001e-23)
(0.184542 -0.0880027 6.41701e-39)
(0.0289631 -0.0138133 2.35099e-38)
(-0.0140825 0.00858619 -2.56848e-20)
(0.11007 -0.0638515 2.21228e-35)
(0.511545 -0.262192 -6.96859e-35)
(0.31261 -0.150429 7.52316e-37)
(0.13723 -0.0640375 -8.09779e-19)
(0.0361353 -0.00605045 -2.93874e-39)
(0.0359838 -0.00595904 1.28195e-20)
(0.0357831 -0.00585888 -2.49045e-23)
(0.0355948 -0.00576501 1.27295e-20)
(0.0354477 -0.00567673 2.48181e-23)
(0.0352723 -0.0055865 1.2616e-20)
(0.0351383 -0.00550253 2.46458e-23)
(0.0349716 -0.00541484 2.44744e-23)
(0.0348063 -0.00532745 -2.4475e-23)
(0.0345967 -0.00523571 -1.24661e-20)
(0.0377562 -0.00705293 -5.52482e-37)
(0.0376044 -0.00694897 -1.3289e-20)
(0.0374502 -0.00684559 0)
(0.037296 -0.00674375 1.3193e-20)
(0.0371384 -0.00664235 2.56275e-23)
(0.0369797 -0.00654202 1.30722e-20)
(0.0368002 -0.00643903 -2.61261e-20)
(0.0366345 -0.0063407 2.54437e-23)
(0.0364737 -0.00624362 1.29316e-20)
(0.0363126 -0.00614799 2.5262e-23)
(-0.0487811 0.00846379 3.35008e-19)
(-0.0442131 0.00759776 3.35099e-19)
(-0.032031 0.0054916 -3.38294e-19)
(-0.0170712 0.00269321 1.32717e-21)
(0.00139759 -0.000989648 -1.33586e-21)
(0.0245299 -0.00530939 -3.43513e-19)
(0.051419 -0.0105016 -3.46385e-19)
(-0.479659 -0.00030849 0)
(-0.466081 -0.000471229 0)
(-0.455856 -0.000478524 0)
(-0.44006 -0.000378275 0)
(-0.427703 -0.000246324 0)
(-0.280189 0.000329586 0)
(-0.294177 0.000227935 0)
(-0.303869 0.000105788 0)
(-0.309153 -3.23939e-05 0)
(-0.309957 -7.95307e-05 0)
(0.0198566 9.96884e-08 0)
(0.0198574 3.16102e-07 0)
(0.0198308 1.89527e-07 0)
(0.0198444 2.43791e-07 0)
(0.0197922 1.233e-06 0)
(0.0197617 3.20976e-07 0)
(0.0197429 8.95301e-07 0)
(0.0197056 2.92306e-07 0)
(0.0197017 6.30601e-07 0)
(0.0196613 5.80686e-07 0)
(0.0196459 5.48489e-07 0)
(0.0196187 4.88696e-07 0)
(0.0199528 -9.28092e-07 0)
(0.0199864 -1.01936e-06 0)
(0.0200474 -1.34078e-06 0)
(0.0200961 -5.9282e-07 0)
(0.0201019 -4.39154e-07 0)
(0.0201422 -9.18334e-07 0)
(0.0201754 -6.65226e-07 0)
(0.020211 -1.00011e-06 0)
(0.0202552 -9.19416e-07 0)
(0.0202995 -1.08288e-06 0)
(0.0203403 -9.49979e-07 0)
(-0.221163 0.0513057 6.69644e-19)
(-0.285593 0.065713 -3.28645e-19)
(-0.330722 0.076052 3.24712e-19)
(-0.347952 0.0798165 -3.21798e-19)
(-0.337701 0.0775165 1.24255e-21)
(-0.29571 0.0684734 0)
(-0.252916 0.0586783 3.92115e-24)
(-0.213475 0.0511764 1.37661e-37)
(2.69527 -1.83171 -3.29455e-21)
(6.90368 -6.06024 1.63957e-18)
(6.86071 -10.9736 1.21118e-20)
(1.72171 -11.0145 7.61287e-19)
(-1.99873 -8.76175 1.70082e-21)
(-3.74081 -5.65515 -6.20484e-19)
(-3.17071 -2.25169 -2.96564e-19)
(-1.823 -0.488688 -4.79973e-20)
(-0.37537 -0.0636878 2.93874e-37)
(0.3961 -0.00119079 0)
(0.435993 -0.000577141 0)
(0.455071 -0.000327532 0)
(0.474603 -0.000317806 0)
(0.495836 -0.000432758 0)
(0.523087 -0.000531334 0)
(-0.123654 0.0167407 -3.08456e-19)
(-0.10778 0.0148851 -3.11282e-19)
(-0.0993615 0.0140282 6.23081e-19)
(-0.0982035 0.0141079 3.12206e-19)
(-0.0992282 0.0143704 -9.40395e-38)
(-0.0992378 0.0144909 9.40395e-38)
(-0.0970375 0.0142598 3.14042e-19)
(0.371233 -0.000364884 0)
(0.384759 -0.0002822 0)
(0.395311 -0.00023154 0)
(0.406129 -0.000234425 0)
(0.416735 -0.000169471 0)
(-0.14354 0.000222499 0)
(-0.152552 0.000145173 0)
(-0.156432 -0.000255643 0)
(-0.143286 -0.0010468 0)
(-0.112072 -0.000841097 0)
(0.0405988 -0.0093071 1.4365e-20)
(0.040441 -0.00917126 -1.43119e-20)
(0.0403023 -0.0090416 2.84045e-20)
(0.0401697 -0.00891541 2.35099e-38)
(0.0399932 -0.00877975 -1.40958e-20)
(0.0398301 -0.00865177 -1.17549e-38)
(0.0396966 -0.00852971 1.39915e-20)
(0.0395362 -0.00840539 -1.38861e-20)
(0.0394209 -0.00829065 1.37799e-20)
(0.0392621 -0.00816918 1.38915e-20)
(0.0197161 -5.64625e-07 0)
(0.0197473 -7.12208e-07 0)
(0.0197816 -7.11356e-07 0)
(0.0198132 -6.25125e-07 0)
(0.0198387 -5.1593e-07 0)
(0.0198632 -5.74266e-07 0)
(0.0198913 -5.01589e-07 0)
(0.0199096 -3.57037e-07 0)
(0.0199275 -4.20942e-07 0)
(0.0199511 -6.21524e-07 0)
(0.0199878 -7.86706e-07 0)
(0.0200207 -6.19341e-07 0)
(0.0200493 -6.44683e-07 0)
(-0.145898 -0.0485063 1.9608e-20)
(-0.0285968 -0.0178992 -7.92194e-23)
(-0.0100906 -0.0088534 2.06571e-20)
(-0.00206273 -0.00333424 -1.99259e-24)
(-0.213286 0.0230978 5.12684e-25)
(-0.193813 0.0195928 1.62354e-19)
(-0.157615 0.0166292 1.53984e-19)
(-0.131067 0.0144834 -3.08807e-19)
(-0.123019 0.0144755 -1.21532e-21)
(-0.143108 0.016878 -1.55342e-19)
(-0.1624 0.0193845 6.91191e-36)
(0.453642 -1.75714e-05 0)
(0.455699 5.9736e-05 0)
(0.455824 9.38449e-05 0)
(0.455172 0.000127315 0)
(0.45274 0.000178044 0)
(0.0205927 3.81129e-07 0)
(0.0205702 2.78864e-07 0)
(0.0205639 2.49024e-07 0)
(0.0205539 8.35997e-08 0)
(0.0205537 4.92898e-08 0)
(0.0205525 8.19598e-08 0)
(0.0205413 1.84512e-07 0)
(0.0205423 2.48111e-07 0)
(0.0205046 1.07531e-06 0)
(0.0204659 5.01142e-07 0)
(0.0204486 6.37659e-07 0)
(0.0204226 3.10656e-07 0)
(-0.0657178 0.00390565 3.83317e-22)
(-0.0666798 0.00430833 0)
(-0.0724751 0.00456855 -3.42213e-19)
(-0.0605256 0.00306241 2.17767e-24)
(-0.0310351 0.000559847 -3.23544e-22)
(0.0295192 -0.00387964 3.35552e-22)
(0.481081 -0.00905109 4.86903e-20)
(0.454679 -0.00907358 -9.54484e-23)
(0.425312 -0.00873468 6.99689e-21)
(0.402591 -0.00844539 2.93874e-39)
(0.372717 -0.00871869 -4.89213e-20)
(0.343425 -0.00843303 0)
(-0.501937 0.000208384 0)
(-0.51354 1.84497e-05 0)
(-0.519323 1.61242e-06 0)
(-0.526851 1.09125e-05 0)
(-0.296403 -1.02156e-05 0)
(-0.295792 5.97614e-06 0)
(-0.295354 -3.01442e-05 0)
(-0.291713 -0.000298497 0)
(-0.269022 -0.00158511 0)
(-0.232942 -0.00248631 0)
(-0.330863 0.000100124 0)
(-0.333855 4.27523e-06 0)
(-0.333497 2.85694e-05 0)
(-0.334329 1.96369e-05 0)
(-0.333472 2.90474e-07 0)
(0.625453 -0.639612 2.23473e-18)
(0.820563 -0.793639 2.37335e-19)
(0.0527599 -0.00370987 1.88079e-37)
(-2.29612 2.57866 -3.42778e-21)
(-2.22184 2.47647 1.46897e-21)
(-1.3267 1.28558 -1.45873e-21)
(0.772193 -1.05896 -2.19617e-18)
(1.70968 -2.17227 2.18725e-18)
(0.0196024 4.45917e-07 0)
(0.019584 3.0459e-07 0)
(0.0195771 1.53259e-07 0)
(0.0195709 7.04234e-08 0)
(0.019572 1.29359e-07 0)
(0.0195553 2.81727e-07 0)
(0.0195568 -2.83422e-07 0)
(0.0195703 1.56322e-07 0)
(0.019544 4.43714e-07 0)
(0.0195353 2.10281e-07 0)
(0.0195213 3.75349e-07 0)
(0.0195081 1.97843e-07 0)
(0.0194998 2.96316e-07 0)
(0.446486 -0.549811 2.01842e-22)
(-0.0901012 0.111633 1.16288e-20)
(0.689864 -1.07289 -1.59621e-18)
(0.277435 -0.383156 -8.50016e-20)
(-1.4337 2.76404 -1.12048e-20)
(-1.98486 3.83654 1.85036e-22)
(-1.29455 2.67154 4.52471e-21)
(-0.19127 0.350291 4.88723e-24)
(0.226312 -0.00496359 0)
(0.0326637 -0.00434513 3.93418e-37)
(0.0324595 -0.00426543 2.3339e-23)
(0.0322849 -0.00419275 1.19378e-20)
(0.0321398 -0.00412238 1.18758e-20)
(0.0319678 -0.00405104 2.31311e-23)
(0.0318462 -0.0039847 1.18241e-20)
(0.031601 -0.00390412 -1.18097e-20)
(0.0314357 -0.00383663 -5.31911e-37)
(0.0312673 -0.00376741 -5.87946e-21)
(0.0310886 -0.00369884 2.28429e-23)
(0.0309101 -0.00363041 2.27023e-23)
(-0.367842 0.0959248 6.16845e-19)
(-0.345411 0.0908916 -6.1559e-19)
(-0.321947 0.0855617 -6.13534e-19)
(-0.296213 0.0794579 -1.22357e-18)
(-0.268477 0.0726694 0)
(-0.239213 0.0652071 -6.09787e-19)
(-0.201698 0.0543272 -2.26291e-23)
(-0.164463 0.0455797 1.27841e-18)
(-0.478513 -3.42899e-05 0)
(-0.484549 -0.000176252 0)
(-0.484855 -0.000249957 0)
(-0.4876 1.69346e-05 0)
(-0.101012 0.0088409 3.36595e-22)
(-0.142073 0.0126258 -1.714e-19)
(-0.200027 0.0179989 -3.41414e-19)
(-0.275204 0.0248567 -1.31822e-24)
(-0.352378 0.0316244 3.29375e-22)
(-0.406496 0.0359365 2.35099e-38)
(-0.422556 0.036872 -1.64621e-19)
(-0.367065 -0.000299428 0)
(-0.353714 -0.000340722 0)
(-0.337942 -0.000368942 0)
(-0.321425 -0.00036364 0)
(-0.305939 -0.000271825 0)
(0.0194869 2.11706e-07 0)
(0.0194788 3.18124e-07 0)
(0.0194629 4.55879e-08 0)
(0.019477 1.23976e-07 0)
(0.0194419 7.79717e-07 0)
(0.0194281 2.75533e-08 0)
(0.0194256 3.56065e-07 0)
(0.0194133 -7.18478e-08 0)
(0.0194201 2.42311e-07 0)
(0.0194018 2.09321e-07 0)
(0.0193966 2.97215e-07 0)
(0.0193831 1.09068e-07 0)
(0.041664 -0.0105371 -2.95376e-20)
(0.0415225 -0.0103863 -2.15083e-25)
(0.041426 -0.0102494 2.93193e-20)
(0.0412927 -0.0101047 1.46335e-20)
(0.0411857 -0.00996974 -1.17549e-38)
(0.0410695 -0.00983312 -1.45247e-20)
(0.0409556 -0.00970043 -1.44715e-20)
(0.0408362 -0.00956677 -1.43605e-20)
(0.0407117 -0.00943567 -1.44199e-20)
(0.0344756 -1.27442e-05 0)
(0.0350814 -1.34875e-05 0)
(0.0357213 -1.42938e-05 0)
(0.0364018 -1.52181e-05 0)
(0.0371258 -1.62028e-05 0)
(0.0378976 -1.73144e-05 0)
(0.0387231 -1.85355e-05 0)
(0.0396077 -1.99242e-05 0)
(0.0405604 -2.14864e-05 0)
(0.0415882 -2.32512e-05 0)
(0.0427032 -2.52766e-05 0)
(0.0439156 -2.75558e-05 0)
(0.0452407 -3.02722e-05 0)
(0.046701 -3.34388e-05 0)
(0.0215973 -1.69912e-06 0)
(0.0216794 -1.76443e-06 0)
(0.0217588 -1.67539e-06 0)
(0.0218399 -1.85367e-06 0)
(0.02193 -1.91069e-06 0)
(0.0220193 -1.97217e-06 0)
(0.0221126 -1.95755e-06 0)
(0.022203 -2.03651e-06 0)
(0.0223035 -2.16367e-06 0)
(0.0224035 -2.18107e-06 0)
(0.0225087 -2.28572e-06 0)
(0.0226141 -2.29195e-06 0)
(0.0227256 -2.43549e-06 0)
(0.0228369 -2.36057e-06 0)
(0.0194813 -2.73929e-07 0)
(0.0194905 -1.0178e-07 0)
(0.019498 -2.42787e-07 0)
(0.0195103 -2.09042e-07 0)
(0.0195239 -4.24226e-07 0)
(0.0195465 -4.46733e-07 0)
(0.0195691 -5.99024e-07 0)
(0.0195976 -4.71185e-07 0)
(0.0196136 -4.2631e-07 0)
(0.0196378 -4.29017e-07 0)
(0.0196515 -2.3878e-07 0)
(0.0196659 -4.37336e-07 0)
(0.0196928 -5.2069e-07 0)
(-0.024211 0.00375198 -6.38154e-22)
(-0.0118206 0.00179467 -3.31458e-24)
(-0.00172648 0.000277329 3.3011e-19)
(0.000822824 -8.25404e-06 1.88079e-37)
(-0.00713609 0.00154087 -3.32335e-19)
(-0.0265887 0.00506732 3.33061e-19)
(-0.0440968 0.00782522 -6.66921e-19)
(0.0203919 -1.02898e-06 0)
(0.0204126 -7.04512e-07 0)
(0.0204753 -1.12589e-06 0)
(0.0204661 5.94161e-07 0)
(0.0204702 -1.15001e-06 0)
(0.0205219 3.86355e-08 0)
(0.0204947 -4.3807e-07 0)
(0.0205437 -4.52817e-07 0)
(0.0205416 -4.51929e-07 0)
(0.0205821 -4.37066e-07 0)
(0.0205714 -2.23453e-07 0)
(0.0202584 4.55248e-07 0)
(0.0202496 4.48857e-07 0)
(0.0202186 5.68149e-07 0)
(0.0202058 2.70897e-07 0)
(0.0201901 4.24751e-07 0)
(0.0201761 8.86456e-08 0)
(0.0201789 8.88134e-08 0)
(0.0201695 8.38768e-08 0)
(0.0201707 1.2064e-07 0)
(0.020154 4.44064e-07 0)
(0.0201345 4.68995e-07 0)
(0.0201076 6.93035e-07 0)
(0.0200795 4.32351e-07 0)
(-0.301019 -0.000243752 0)
(-0.292302 -0.000138516 0)
(-0.287238 5.10967e-06 0)
(-0.285101 -0.000232509 0)
(-0.271155 -0.000702098 0)
(-0.18267 -0.000474408 0)
(-0.162048 -0.000331539 0)
(-0.147823 -8.51656e-05 0)
(-0.148723 0.000231492 0)
(-0.156751 0.00036512 0)
(0.0255737 -0.00185341 -1.04177e-23)
(0.025436 -0.00180946 2.45542e-26)
(0.0252308 -0.00176056 -1.06197e-20)
(0.0250555 -0.0017168 -5.31377e-21)
(0.0248988 -0.00167302 2.32158e-26)
(0.0247284 -0.00162958 1.03233e-23)
(0.0245384 -0.00158445 -1.0278e-23)
(0.0243723 -0.00154376 1.02781e-23)
(0.0242372 -0.00150312 -3.95659e-40)
(0.0240667 -0.0014623 1.02127e-23)
(0.0200664 4.92506e-07 0)
(0.0200379 4.1517e-07 0)
(0.0200335 1.6741e-07 0)
(0.0200172 4.27095e-07 0)
(0.0200031 3.09448e-07 0)
(0.0199817 4.56672e-07 0)
(0.0199755 2.88622e-07 0)
(0.0199383 1.05984e-06 0)
(0.0199067 2.85724e-07 0)
(0.0198958 6.22525e-07 0)
(0.0198706 1.1822e-07 0)
(0.0198734 2.65947e-07 0)
(0.259839 -0.0935401 -4.91193e-21)
(0.121202 -0.0398932 1.05089e-35)
(-0.0661363 0.0323424 -4.1877e-38)
(-0.265523 0.107716 -1.34163e-21)
(-0.376866 0.147799 6.78566e-19)
(-0.298393 0.117795 -2.87809e-20)
(-0.186843 0.0681927 2.92525e-23)
(0.00237522 0.000303373 -1.341e-21)
(-0.0916519 0.0136138 3.29138e-35)
(-0.0862771 0.0129317 -3.1606e-19)
(-0.0791428 0.0119891 1.88079e-37)
(-0.071946 0.0110068 3.19216e-19)
(-0.0642975 0.00993769 -6.23637e-22)
(-0.056184 0.00874368 -3.21342e-19)
(-0.0467178 0.00729479 3.22773e-19)
(-0.0360292 0.00561955 -9.40395e-38)
(-0.190144 0.00780106 8.67355e-20)
(-0.171122 0.00714956 1.68632e-22)
(-0.149778 0.00641599 -8.64447e-20)
(-0.129604 0.00570017 -2.99751e-36)
(-0.110092 0.00486861 8.61848e-20)
(-0.0852362 0.00307592 -9.26257e-25)
(0.0274267 -0.00239254 -6.9648e-37)
(0.027196 -0.00233475 -5.46066e-21)
(0.0270393 -0.00228574 -1.0673e-23)
(0.0268803 -0.00223524 -1.06192e-23)
(0.0267187 -0.00218569 2.12123e-23)
(0.0265294 -0.00213339 -2.6108e-26)
(0.0263369 -0.0020836 -5.42494e-21)
(0.0261908 -0.00203681 1.05416e-23)
(0.0260192 -0.00198905 -5.88321e-40)
(0.0258771 -0.00194372 -1.04666e-23)
(0.0257211 -0.00189801 5.36312e-21)
(0.0239496 -0.0130236 1.30964e-22)
(0.0249825 -0.013326 -6.72195e-20)
(0.0259954 -0.013607 -3.37022e-20)
(0.0269649 -0.0138561 -3.34617e-20)