# Region type : patch outlet
# Faces       : 72
# Area        : 2.412500e-01
# Scale factor: 1.000000e+00
# Time        	areaAverage(p)
0             	-1.280000e+02
500           	-1.280000e+02
1000          	-1.280000e+02
1500          	-1.280000e+02
2000          	-1.280000e+02
2500          	-1.280000e+02
3000          	-1.280000e+02
3500          	-1.280000e+02
4000          	-1.280000e+02
4500          	-1.280000e+02
5000          	-1.280000e+02
