/*--------------------------------*- C++ -*----------------------------------*\
| =========                 |                                                 |
| \\      /  F ield         | OpenFOAM: The Open Source CFD Toolbox           |
|  \\    /   O peration     | Version:  2412                                  |
|   \\  /    A nd           | Website:  www.openfoam.com                      |
|    \\/     M anipulation  |                                                 |
\*---------------------------------------------------------------------------*/
FoamFile
{
    version     2.0;
    format      ascii;
    arch        "LSB;label=32;scalar=64";
    class       volScalarField;
    location    "2000";
    object      p;
}
// * * * * * * * * * * * * * * * * * * * * * * * * * * * * * * * * * * * * * //

dimensions      [0 2 -2 0 0 0 0];

internalField   nonuniform List<scalar> 
360650
(
-4.56924
-4.56925
-4.56926
-4.56927
-4.56928
-4.5693
-4.56933
-4.56936
-4.56941
-4.56947
-4.56954
-4.56964
-4.56975
-4.5699
-4.57008
-4.5703
-4.57057
-4.57089
-4.57127
-4.57172
-4.57225
-4.57287
-4.57359
-4.57443
-4.57541
-4.57654
-4.57781
-4.5795
-4.55838
-4.55839
-4.5584
-4.55841
-4.55843
-4.55844
-4.55847
-4.5585
-4.55853
-4.55858
-4.55864
-4.55872
-4.55882
-4.55893
-4.55907
-4.55925
-4.55945
-4.55969
-4.55997
-4.5603
-4.56068
-4.56112
-4.56162
-4.56217
-4.5628
-4.56348
-4.56426
-4.56513
-4.54792
-4.54793
-4.54794
-4.54795
-4.54796
-4.54798
-4.548
-4.54803
-4.54807
-4.54812
-4.54819
-4.54827
-4.54837
-4.54849
-4.54864
-4.54883
-4.54904
-4.5493
-4.54961
-4.54996
-4.55037
-4.55084
-4.55138
-4.55198
-4.55265
-4.55339
-4.5542
-4.55498
-4.53742
-4.53743
-4.53744
-4.53745
-4.53746
-4.53748
-4.5375
-4.53753
-4.53757
-4.53762
-4.53769
-4.53777
-4.53788
-4.53801
-4.53817
-4.53836
-4.53859
-4.53886
-4.53919
-4.53957
-4.54002
-4.54055
-4.54116
-4.54186
-4.54267
-4.54361
-4.54468
-4.54583
-4.52716
-4.52716
-4.52717
-4.52718
-4.5272
-4.52721
-4.52723
-4.52726
-4.5273
-4.52735
-4.52741
-4.52749
-4.52759
-4.5277
-4.52785
-4.52802
-4.52823
-4.52848
-4.52877
-4.52911
-4.5295
-4.52996
-4.53048
-4.53107
-4.53174
-4.5325
-4.53333
-4.5342
-4.51704
-4.51705
-4.51706
-4.51707
-4.51708
-4.5171
-4.51712
-4.51715
-4.51718
-4.51723
-4.5173
-4.51738
-4.51747
-4.51759
-4.51774
-4.51792
-4.51814
-4.5184
-4.5187
-4.51905
-4.51947
-4.51995
-4.5205
-4.52112
-4.52183
-4.52262
-4.52348
-4.52447
-4.50698
-4.50699
-4.507
-4.50701
-4.50702
-4.50704
-4.50706
-4.50709
-4.50713
-4.50719
-4.50725
-4.50734
-4.50744
-4.50757
-4.50773
-4.50793
-4.50816
-4.50845
-4.50878
-4.50918
-4.50964
-4.51018
-4.5108
-4.51152
-4.51235
-4.51328
-4.51431
-4.51557
-4.49716
-4.49717
-4.49718
-4.49719
-4.4972
-4.49722
-4.49725
-4.49728
-4.49732
-4.49737
-4.49743
-4.49752
-4.49762
-4.49775
-4.49791
-4.49811
-4.49835
-4.49863
-4.49897
-4.49937
-4.49985
-4.50041
-4.50106
-4.50183
-4.50272
-4.50375
-4.50496
-4.50653
-4.4872
-4.48721
-4.48722
-4.48723
-4.48724
-4.48725
-4.48727
-4.4873
-4.48733
-4.48738
-4.48743
-4.4875
-4.48758
-4.48768
-4.4878
-4.48795
-4.48813
-4.48834
-4.48858
-4.48887
-4.48919
-4.48957
-4.48999
-4.49046
-4.49099
-4.49156
-4.49222
-4.4928
-4.47798
-4.47799
-4.478
-4.47801
-4.47802
-4.47803
-4.47805
-4.47808
-4.47812
-4.47816
-4.47822
-4.47829
-4.47838
-4.4785
-4.47863
-4.4788
-4.479
-4.47923
-4.47951
-4.47984
-4.48022
-4.48065
-4.48115
-4.48171
-4.48234
-4.48304
-4.48378
-4.48449
-4.46843
-4.46844
-4.46845
-4.46846
-4.46847
-4.46849
-4.46851
-4.46854
-4.46857
-4.46862
-4.46868
-4.46875
-4.46884
-4.46896
-4.46909
-4.46926
-4.46947
-4.46971
-4.47001
-4.47035
-4.47075
-4.47123
-4.47178
-4.47242
-4.47317
-4.47402
-4.47499
-4.47621
-122.835
-122.836
-122.836
-122.835
-122.835
-122.835
-122.836
-122.837
-122.838
-122.84
-122.843
-122.847
-122.852
-122.857
-122.864
-122.872
-122.88
-122.889
-122.898
-122.908
-122.917
-122.927
-122.936
-122.944
-122.951
-122.96
-122.96
-122.956
-122.111
-122.111
-122.111
-122.111
-122.111
-122.111
-122.11
-122.11
-122.11
-122.111
-122.111
-122.112
-122.114
-122.116
-122.118
-122.12
-122.122
-122.124
-122.125
-122.127
-122.127
-122.127
-122.125
-122.123
-122.119
-122.114
-122.098
-122.101
-121.461
-121.461
-121.461
-121.461
-121.461
-121.46
-121.46
-121.46
-121.459
-121.459
-121.458
-121.458
-121.458
-121.457
-121.457
-121.456
-121.455
-121.454
-121.452
-121.449
-121.446
-121.441
-121.435
-121.428
-121.419
-121.407
-121.39
-121.388
-120.863
-120.864
-120.864
-120.864
-120.864
-120.863
-120.863
-120.862
-120.861
-120.86
-120.859
-120.858
-120.857
-120.855
-120.853
-120.85
-120.847
-120.844
-120.84
-120.835
-120.829
-120.822
-120.814
-120.805
-120.794
-120.782
-120.766
-120.757
-120.328
-120.329
-120.329
-120.329
-120.329
-120.328
-120.328
-120.327
-120.327
-120.326
-120.325
-120.324
-120.322
-120.321
-120.319
-120.316
-120.314
-120.311
-120.307
-120.303
-120.298
-120.292
-120.285
-120.277
-120.268
-120.258
-120.244
-120.234
-119.823
-119.824
-119.824
-119.824
-119.824
-119.824
-119.823
-119.823
-119.823
-119.822
-119.821
-119.82
-119.819
-119.818
-119.817
-119.815
-119.814
-119.812
-119.809
-119.806
-119.803
-119.8
-119.796
-119.791
-119.786
-119.781
-119.773
-119.774
-148.826
-148.826
-148.826
-148.826
-148.826
-148.827
-148.828
-148.829
-148.831
-148.834
-148.836
-148.84
-148.844
-148.849
-148.854
-148.86
-148.866
-148.873
-148.881
-148.889
-148.898
-148.908
-148.919
-148.932
-148.945
-148.96
-148.977
-148.993
-149.799
-149.799
-149.799
-149.799
-149.799
-149.8
-149.8
-149.801
-149.802
-149.804
-149.807
-149.81
-149.813
-149.817
-149.822
-149.828
-149.834
-149.841
-149.848
-149.856
-149.865
-149.875
-149.886
-149.897
-149.91
-149.924
-149.94
-149.957
-150.793
-150.793
-150.793
-150.792
-150.792
-150.792
-150.792
-150.793
-150.793
-150.794
-150.796
-150.798
-150.801
-150.804
-150.808
-150.812
-150.817
-150.823
-150.829
-150.836
-150.844
-150.852
-150.861
-150.872
-150.883
-150.894
-150.906
-150.923
-151.809
-151.809
-151.809
-151.809
-151.808
-151.808
-151.808
-151.807
-151.807
-151.808
-151.808
-151.809
-151.81
-151.812
-151.814
-151.817
-151.82
-151.824
-151.828
-151.833
-151.838
-151.845
-151.852
-151.859
-151.867
-151.876
-151.885
-151.897
-152.838
-152.838
-152.837
-152.837
-152.837
-152.836
-152.835
-152.835
-152.834
-152.833
-152.832
-152.832
-152.831
-152.831
-152.831
-152.832
-152.833
-152.834
-152.835
-152.837
-152.84
-152.843
-152.846
-152.85
-152.854
-152.859
-152.863
-152.869
-109.267
-109.273
-109.281
-109.289
-109.302
-109.318
-109.341
-109.371
-109.409
-109.457
-109.519
-109.596
-109.693
-109.812
-109.958
-110.135
-110.345
-110.593
-110.881
-111.208
-111.573
-111.971
-112.399
-112.849
-113.314
-113.799
-114.309
-114.772
-111.848
-111.852
-111.859
-111.867
-111.878
-111.894
-111.915
-111.941
-111.975
-112.018
-112.071
-112.137
-112.22
-112.322
-112.447
-112.597
-112.774
-112.979
-113.214
-113.478
-113.767
-114.08
-114.414
-114.765
-115.128
-115.51
-115.923
-116.299
-114.023
-114.026
-114.031
-114.038
-114.049
-114.063
-114.084
-114.11
-114.144
-114.186
-114.236
-114.297
-114.372
-114.465
-114.577
-114.708
-114.86
-115.032
-115.224
-115.437
-115.668
-115.917
-116.184
-116.466
-116.761
-117.074
-117.415
-117.728
-115.817
-115.82
-115.825
-115.83
-115.839
-115.852
-115.871
-115.897
-115.93
-115.97
-116.019
-116.079
-116.154
-116.244
-116.35
-116.473
-116.611
-116.763
-116.93
-117.112
-117.307
-117.515
-117.737
-117.971
-118.216
-118.476
-118.756
-119.007
-117.848
-117.852
-117.857
-117.863
-117.873
-117.887
-117.906
-117.932
-117.965
-118.006
-118.055
-118.115
-118.188
-118.275
-118.375
-118.487
-118.612
-118.749
-118.896
-119.054
-119.222
-119.4
-119.587
-119.782
-119.984
-120.196
-120.417
-120.613
-120.43
-120.433
-120.438
-120.446
-120.457
-120.472
-120.491
-120.516
-120.547
-120.584
-120.628
-120.68
-120.743
-120.816
-120.898
-120.99
-121.09
-121.197
-121.311
-121.43
-121.554
-121.683
-121.815
-121.95
-122.086
-122.227
-122.373
-122.5
-133.652
-133.652
-133.652
-133.651
-133.651
-133.65
-133.649
-133.649
-133.649
-133.649
-133.65
-133.652
-133.654
-133.658
-133.664
-133.671
-133.68
-133.69
-133.702
-133.716
-133.73
-133.745
-133.758
-133.773
-133.783
-133.797
-133.799
-133.794
-132.774
-132.774
-132.774
-132.774
-132.774
-132.773
-132.772
-132.77
-132.768
-132.765
-132.762
-132.758
-132.754
-132.749
-132.744
-132.738
-132.732
-132.726
-132.719
-132.711
-132.703
-132.694
-132.683
-132.672
-132.654
-132.641
-132.608
-132.595
-131.893
-131.893
-131.893
-131.893
-131.892
-131.892
-131.891
-131.889
-131.887
-131.883
-131.879
-131.874
-131.867
-131.859
-131.85
-131.84
-131.828
-131.815
-131.801
-131.786
-131.77
-131.753
-131.735
-131.716
-131.694
-131.676
-131.644
-131.632
-130.897
-130.897
-130.897
-130.897
-130.896
-130.896
-130.895
-130.894
-130.892
-130.889
-130.886
-130.882
-130.876
-130.869
-130.862
-130.853
-130.843
-130.832
-130.819
-130.807
-130.795
-130.782
-130.769
-130.757
-130.743
-130.734
-130.715
-130.727
-129.831
-129.831
-129.83
-129.83
-129.83
-129.829
-129.829
-129.828
-129.828
-129.827
-129.826
-129.824
-129.822
-129.82
-129.818
-129.815
-129.813
-129.813
-129.813
-129.811
-129.81
-129.81
-129.81
-129.812
-129.815
-129.82
-129.825
-129.841
-128.708
-128.708
-128.707
-128.707
-128.707
-128.707
-128.707
-128.708
-128.709
-128.711
-128.713
-128.717
-128.721
-128.726
-128.733
-128.741
-128.749
-128.758
-128.769
-128.782
-128.798
-128.815
-128.834
-128.854
-128.875
-128.898
-128.917
-128.93
-151.748
-151.746
-151.745
-151.744
-151.744
-151.744
-151.744
-151.744
-151.744
-151.743
-151.74
-151.737
-151.732
-151.726
-151.722
-151.721
-151.729
-151.74
-151.745
-151.763
-151.799
-151.817
-151.87
-152.033
-152.214
-152.302
-152.562
-152.995
-149.949
-149.948
-149.946
-149.944
-149.942
-149.939
-149.936
-149.933
-149.928
-149.922
-149.915
-149.906
-149.895
-149.883
-149.871
-149.857
-149.843
-149.83
-149.819
-149.805
-149.787
-149.802
-149.874
-149.941
-150.069
-150.296
-150.436
-150.238
-148.253
-148.251
-148.249
-148.246
-148.241
-148.235
-148.228
-148.218
-148.206
-148.192
-148.174
-148.153
-148.129
-148.103
-148.072
-148.037
-148
-147.959
-147.912
-147.861
-147.811
-147.765
-147.718
-147.663
-147.545
-147.431
-147.244
-147.303
-146.826
-146.825
-146.822
-146.819
-146.815
-146.81
-146.804
-146.797
-146.79
-146.782
-146.773
-146.764
-146.753
-146.741
-146.729
-146.717
-146.705
-146.691
-146.677
-146.662
-146.643
-146.614
-146.57
-146.519
-146.485
-146.449
-146.341
-146.558
-145.361
-145.36
-145.358
-145.355
-145.352
-145.348
-145.345
-145.342
-145.339
-145.339
-145.339
-145.342
-145.346
-145.353
-145.362
-145.375
-145.391
-145.412
-145.437
-145.468
-145.506
-145.553
-145.615
-145.708
-145.828
-145.965
-146.124
-146.735
-144.001
-144
-143.998
-143.994
-143.99
-143.985
-143.979
-143.974
-143.969
-143.964
-143.96
-143.956
-143.952
-143.949
-143.947
-143.944
-143.941
-143.938
-143.935
-143.931
-143.928
-143.927
-143.926
-143.919
-143.921
-143.931
-143.941
-143.989
-142.833
-142.832
-142.831
-142.828
-142.824
-142.82
-142.815
-142.809
-142.804
-142.799
-142.794
-142.788
-142.782
-142.775
-142.768
-142.759
-142.749
-142.737
-142.722
-142.706
-142.687
-142.666
-142.643
-142.614
-142.568
-142.507
-142.431
-142.285
-4.24507
-4.24507
-4.24507
-4.24507
-4.24507
-4.24508
-4.24508
-4.24509
-4.24511
-4.24513
-4.24516
-4.24519
-4.24524
-4.2453
-4.24537
-4.24546
-4.24558
-4.24571
-4.24588
-4.24607
-4.2463
-4.24657
-4.24689
-4.24725
-4.24766
-4.24813
-4.24861
-4.24925
-4.24164
-4.24164
-4.24164
-4.24164
-4.24164
-4.24164
-4.24165
-4.24166
-4.24167
-4.24169
-4.24172
-4.24176
-4.2418
-4.24186
-4.24194
-4.24203
-4.24215
-4.24229
-4.24246
-4.24267
-4.24292
-4.24322
-4.24357
-4.24399
-4.2445
-4.24508
-4.24578
-4.24681
-4.2384
-4.2384
-4.2384
-4.2384
-4.2384
-4.2384
-4.2384
-4.23841
-4.23842
-4.23843
-4.23845
-4.23847
-4.23849
-4.23853
-4.23857
-4.23862
-4.23869
-4.23876
-4.23885
-4.23895
-4.23907
-4.2392
-4.23934
-4.23951
-4.23968
-4.23986
-4.24009
-4.24024
-4.23557
-4.23557
-4.23556
-4.23556
-4.23556
-4.23556
-4.23556
-4.23556
-4.23557
-4.23558
-4.2356
-4.23562
-4.23565
-4.23569
-4.23573
-4.23579
-4.23586
-4.23595
-4.23605
-4.23617
-4.23632
-4.23648
-4.23668
-4.2369
-4.23715
-4.23743
-4.23774
-4.23803
-4.23255
-4.23255
-4.23254
-4.23254
-4.23253
-4.23253
-4.23252
-4.23252
-4.23253
-4.23253
-4.23254
-4.23255
-4.23257
-4.23259
-4.23261
-4.23265
-4.23269
-4.23275
-4.23282
-4.2329
-4.23299
-4.23311
-4.23324
-4.2334
-4.23359
-4.2338
-4.23406
-4.23434
-4.22995
-4.22994
-4.22993
-4.22992
-4.22992
-4.22991
-4.22991
-4.2299
-4.2299
-4.2299
-4.2299
-4.22991
-4.22991
-4.22993
-4.22994
-4.22997
-4.23
-4.23003
-4.23008
-4.23014
-4.23021
-4.23029
-4.23039
-4.2305
-4.23063
-4.23077
-4.23092
-4.23108
-4.22665
-4.22665
-4.22664
-4.22663
-4.22662
-4.22662
-4.22661
-4.22661
-4.2266
-4.2266
-4.2266
-4.22661
-4.22662
-4.22663
-4.22664
-4.22667
-4.2267
-4.22674
-4.2268
-4.22686
-4.22695
-4.22705
-4.22717
-4.22731
-4.22748
-4.22767
-4.2279
-4.22813
-4.22353
-4.22352
-4.22351
-4.22351
-4.2235
-4.22349
-4.22349
-4.22349
-4.22348
-4.22348
-4.22348
-4.22349
-4.2235
-4.22351
-4.22353
-4.22356
-4.22359
-4.22364
-4.2237
-4.22377
-4.22385
-4.22396
-4.22409
-4.22425
-4.22443
-4.22465
-4.22491
-4.22518
-4.21993
-4.21992
-4.21991
-4.21991
-4.2199
-4.2199
-4.21989
-4.21989
-4.21988
-4.21988
-4.21988
-4.21989
-4.21989
-4.21991
-4.21992
-4.21994
-4.21997
-4.22001
-4.22006
-4.22013
-4.22021
-4.2203
-4.22042
-4.22055
-4.22072
-4.22092
-4.22113
-4.22136
-4.21627
-4.21627
-4.21626
-4.21625
-4.21625
-4.21624
-4.21624
-4.21624
-4.21624
-4.21624
-4.21624
-4.21625
-4.21627
-4.21628
-4.21631
-4.21634
-4.21639
-4.21645
-4.21652
-4.21661
-4.21671
-4.21684
-4.21699
-4.21717
-4.21737
-4.21761
-4.21783
-4.21813
-4.21244
-4.21244
-4.21243
-4.21242
-4.21242
-4.21242
-4.21242
-4.21241
-4.21242
-4.21242
-4.21243
-4.21245
-4.21247
-4.2125
-4.21254
-4.21259
-4.21266
-4.21275
-4.21286
-4.213
-4.21318
-4.2134
-4.21367
-4.21401
-4.21442
-4.21493
-4.21555
-4.21651
-173.319
-173.319
-173.32
-173.32
-173.321
-173.321
-173.322
-173.322
-173.322
-173.323
-173.323
-173.323
-173.323
-173.322
-173.322
-173.321
-173.32
-173.32
-173.319
-173.319
-173.318
-173.319
-173.32
-173.322
-173.324
-173.329
-173.335
-173.338
-174.782
-174.783
-174.783
-174.784
-174.784
-174.785
-174.786
-174.786
-174.787
-174.788
-174.788
-174.789
-174.789
-174.789
-174.789
-174.789
-174.789
-174.788
-174.787
-174.787
-174.786
-174.785
-174.785
-174.785
-174.785
-174.786
-174.789
-174.788
-176.257
-176.258
-176.258
-176.259
-176.26
-176.26
-176.261
-176.262
-176.264
-176.265
-176.267
-176.268
-176.27
-176.271
-176.272
-176.274
-176.275
-176.275
-176.276
-176.277
-176.277
-176.278
-176.279
-176.28
-176.282
-176.284
-176.288
-176.292
-177.746
-177.747
-177.747
-177.748
-177.749
-177.749
-177.751
-177.752
-177.753
-177.755
-177.757
-177.759
-177.762
-177.764
-177.767
-177.769
-177.772
-177.775
-177.778
-177.781
-177.784
-177.787
-177.79
-177.794
-177.799
-177.803
-177.808
-177.814
-179.232
-179.232
-179.232
-179.233
-179.233
-179.234
-179.235
-179.236
-179.237
-179.239
-179.241
-179.243
-179.245
-179.247
-179.25
-179.252
-179.255
-179.258
-179.261
-179.263
-179.266
-179.269
-179.272
-179.276
-179.279
-179.282
-179.285
-179.284
-7.64895
-7.6489
-7.64884
-7.64882
-7.64883
-7.64889
-7.64903
-7.64929
-7.6497
-7.65031
-7.6512
-7.65243
-7.65409
-7.6563
-7.65918
-7.66284
-7.66745
-7.67316
-7.68012
-7.68851
-7.69848
-7.71019
-7.72379
-7.73942
-7.75721
-7.77724
-7.79977
-7.82417
-7.66045
-7.6604
-7.66035
-7.66032
-7.66034
-7.66041
-7.66056
-7.66083
-7.66126
-7.66189
-7.6628
-7.66405
-7.66573
-7.66796
-7.67083
-7.67449
-7.67906
-7.68469
-7.69153
-7.69973
-7.70944
-7.72081
-7.73395
-7.74899
-7.76604
-7.78519
-7.80649
-7.82988
-7.6713
-7.67125
-7.6712
-7.67118
-7.6712
-7.67128
-7.67145
-7.67173
-7.67218
-7.67284
-7.67377
-7.67505
-7.67677
-7.67903
-7.68193
-7.68561
-7.69018
-7.6958
-7.70259
-7.71071
-7.72029
-7.73146
-7.74433
-7.75903
-7.77565
-7.79423
-7.81492
-7.83769
-7.68047
-7.68042
-7.68037
-7.68036
-7.68038
-7.68047
-7.68064
-7.68094
-7.6814
-7.68208
-7.68304
-7.68435
-7.6861
-7.68839
-7.69131
-7.695
-7.69958
-7.70517
-7.71193
-7.71997
-7.72944
-7.74045
-7.75314
-7.7676
-7.78392
-7.8022
-7.82257
-7.84456
-7.68864
-7.68859
-7.68855
-7.68854
-7.68857
-7.68866
-7.68885
-7.68916
-7.68964
-7.69033
-7.69131
-7.69264
-7.6944
-7.69669
-7.69962
-7.70329
-7.70783
-7.71337
-7.72002
-7.72792
-7.7372
-7.74796
-7.76033
-7.77438
-7.79024
-7.80795
-7.82754
-7.84921
-7.69519
-7.69515
-7.69511
-7.6951
-7.69514
-7.69524
-7.69543
-7.69575
-7.69624
-7.69695
-7.69794
-7.69927
-7.70105
-7.70334
-7.70625
-7.7099
-7.71439
-7.71985
-7.7264
-7.73415
-7.74321
-7.75371
-7.76574
-7.77939
-7.79475
-7.81185
-7.83084
-7.85178
-7.70049
-7.70045
-7.70041
-7.70041
-7.70045
-7.70056
-7.70076
-7.70109
-7.70159
-7.70231
-7.70331
-7.70465
-7.70642
-7.70871
-7.71161
-7.71522
-7.71965
-7.72501
-7.73142
-7.73899
-7.74783
-7.75803
-7.76969
-7.78289
-7.7977
-7.81418
-7.83249
-7.8522
-7.70447
-7.7044
-7.70435
-7.70435
-7.70443
-7.70457
-7.7048
-7.70514
-7.70564
-7.70637
-7.70737
-7.70872
-7.71049
-7.71277
-7.71565
-7.71923
-7.72361
-7.72891
-7.73522
-7.74265
-7.75131
-7.76129
-7.77267
-7.78555
-7.79997
-7.81602
-7.83374
-7.85285
-7.70691
-7.70683
-7.70677
-7.70677
-7.70687
-7.70706
-7.70734
-7.70772
-7.70824
-7.70897
-7.70998
-7.71133
-7.71309
-7.71536
-7.71822
-7.72176
-7.72609
-7.7313
-7.73751
-7.7448
-7.75329
-7.76305
-7.77419
-7.78676
-7.80085
-7.81651
-7.83376
-7.85272
-123.928
-123.928
-123.927
-123.926
-123.926
-123.925
-123.925
-123.926
-123.928
-123.932
-123.937
-123.945
-123.954
-123.965
-123.978
-123.992
-124.009
-124.028
-124.05
-124.078
-124.111
-124.151
-124.196
-124.245
-124.296
-124.346
-124.399
-124.439
-123.622
-123.622
-123.622
-123.622
-123.622
-123.623
-123.623
-123.624
-123.626
-123.628
-123.631
-123.635
-123.639
-123.644
-123.65
-123.656
-123.663
-123.67
-123.679
-123.689
-123.703
-123.72
-123.74
-123.763
-123.788
-123.813
-123.835
-123.859
-4.20809
-4.20809
-4.20808
-4.20808
-4.20808
-4.20807
-4.20807
-4.20806
-4.20806
-4.20806
-4.20806
-4.20805
-4.20805
-4.20805
-4.20805
-4.20805
-4.20805
-4.20805
-4.20806
-4.20806
-4.20806
-4.20806
-4.20806
-4.20806
-4.20805
-4.20804
-4.20803
-4.20801
-4.20423
-4.20422
-4.20421
-4.20421
-4.20421
-4.2042
-4.2042
-4.2042
-4.20419
-4.20419
-4.20419
-4.20419
-4.2042
-4.2042
-4.20421
-4.20422
-4.20424
-4.20426
-4.20428
-4.20431
-4.20435
-4.20438
-4.20442
-4.20446
-4.20449
-4.20451
-4.20451
-4.20444
-4.19958
-4.19958
-4.19957
-4.19957
-4.19957
-4.19956
-4.19956
-4.19956
-4.19956
-4.19956
-4.19956
-4.19956
-4.19957
-4.19958
-4.19959
-4.19961
-4.19964
-4.19967
-4.19971
-4.19976
-4.19982
-4.19991
-4.20001
-4.20013
-4.20028
-4.20047
-4.20071
-4.201
-4.19537
-4.19537
-4.19536
-4.19536
-4.19535
-4.19535
-4.19535
-4.19534
-4.19534
-4.19534
-4.19534
-4.19533
-4.19533
-4.19533
-4.19534
-4.19534
-4.19535
-4.19535
-4.19537
-4.19538
-4.1954
-4.19542
-4.19545
-4.19549
-4.19554
-4.19559
-4.19566
-4.19572
-4.19058
-4.19057
-4.19057
-4.19056
-4.19056
-4.19056
-4.19055
-4.19055
-4.19055
-4.19055
-4.19055
-4.19055
-4.19056
-4.19057
-4.19058
-4.19059
-4.19061
-4.19064
-4.19067
-4.1907
-4.19075
-4.19079
-4.19085
-4.19091
-4.19097
-4.19103
-4.19107
-4.19111
-4.18614
-4.18613
-4.18613
-4.18613
-4.18612
-4.18612
-4.18612
-4.18612
-4.18612
-4.18612
-4.18613
-4.18614
-4.18615
-4.18617
-4.1862
-4.18623
-4.18628
-4.18634
-4.18641
-4.1865
-4.18662
-4.18677
-4.18695
-4.18718
-4.18746
-4.18781
-4.18825
-4.18878
-4.18093
-4.18092
-4.18092
-4.18092
-4.18091
-4.18091
-4.18091
-4.1809
-4.1809
-4.1809
-4.18089
-4.18089
-4.18089
-4.18088
-4.18088
-4.18087
-4.18086
-4.18086
-4.18085
-4.18084
-4.18082
-4.18081
-4.18078
-4.18075
-4.18071
-4.18065
-4.18059
-4.18051
-4.17639
-4.17639
-4.17638
-4.17638
-4.17638
-4.17638
-4.17637
-4.17637
-4.17637
-4.17638
-4.17638
-4.17639
-4.1764
-4.17642
-4.17644
-4.17646
-4.1765
-4.17654
-4.17659
-4.17666
-4.17674
-4.17683
-4.17693
-4.17704
-4.17717
-4.17731
-4.17743
-4.17748
-4.17106
-4.17105
-4.17105
-4.17105
-4.17105
-4.17105
-4.17105
-4.17105
-4.17105
-4.17105
-4.17106
-4.17107
-4.17108
-4.1711
-4.17113
-4.17116
-4.1712
-4.17126
-4.17133
-4.17143
-4.17154
-4.17169
-4.17188
-4.17212
-4.17243
-4.17281
-4.17329
-4.17401
-4.16597
-4.16597
-4.16597
-4.16596
-4.16596
-4.16596
-4.16596
-4.16595
-4.16595
-4.16594
-4.16594
-4.16593
-4.16592
-4.16591
-4.16589
-4.16588
-4.16585
-4.16583
-4.16579
-4.16575
-4.16569
-4.16562
-4.16553
-4.16542
-4.16527
-4.16508
-4.16487
-4.16458
-4.16089
-4.16088
-4.16088
-4.16088
-4.16088
-4.16087
-4.16087
-4.16087
-4.16087
-4.16087
-4.16088
-4.16088
-4.16089
-4.1609
-4.16091
-4.16092
-4.16094
-4.16097
-4.161
-4.16103
-4.16107
-4.16112
-4.16117
-4.16123
-4.16128
-4.16133
-4.16137
-4.16127
-121.175
-121.175
-121.174
-121.174
-121.173
-121.172
-121.171
-121.171
-121.172
-121.174
-121.178
-121.185
-121.194
-121.208
-121.225
-121.246
-121.271
-121.3
-121.332
-121.367
-121.404
-121.441
-121.481
-121.522
-121.566
-121.611
-121.66
-121.71
-120.964
-120.964
-120.964
-120.963
-120.961
-120.959
-120.958
-120.957
-120.958
-120.961
-120.966
-120.974
-120.987
-121.004
-121.026
-121.052
-121.082
-121.114
-121.148
-121.182
-121.218
-121.256
-121.296
-121.339
-121.385
-121.435
-121.492
-121.549
-121.049
-121.05
-121.05
-121.05
-121.049
-121.049
-121.048
-121.05
-121.054
-121.06
-121.069
-121.08
-121.094
-121.111
-121.131
-121.153
-121.177
-121.203
-121.23
-121.259
-121.289
-121.319
-121.352
-121.388
-121.426
-121.465
-121.512
-121.561
-122.96
-122.961
-122.962
-122.963
-122.964
-122.965
-122.966
-122.968
-122.969
-122.97
-122.971
-122.971
-122.97
-122.969
-122.968
-122.967
-122.966
-122.965
-122.964
-122.964
-122.965
-122.967
-122.97
-122.975
-122.983
-122.987
-122.997
-122.991
-122.902
-122.902
-122.903
-122.903
-122.904
-122.905
-122.906
-122.906
-122.907
-122.907
-122.906
-122.906
-122.904
-122.903
-122.902
-122.9
-122.899
-122.899
-122.9
-122.901
-122.904
-122.91
-122.919
-122.934
-122.956
-122.974
-123.007
-123.033
-136.413
-136.413
-136.413
-136.414
-136.414
-136.414
-136.414
-136.413
-136.412
-136.41
-136.408
-136.405
-136.402
-136.397
-136.391
-136.384
-136.376
-136.367
-136.357
-136.346
-136.334
-136.321
-136.308
-136.294
-136.28
-136.268
-136.254
-136.243
-136.887
-136.888
-136.888
-136.889
-136.889
-136.89
-136.89
-136.89
-136.89
-136.89
-136.889
-136.887
-136.885
-136.883
-136.879
-136.874
-136.869
-136.862
-136.855
-136.846
-136.837
-136.827
-136.816
-136.805
-136.794
-136.784
-136.773
-136.761
-137.399
-137.399
-137.4
-137.401
-137.401
-137.402
-137.402
-137.403
-137.403
-137.403
-137.403
-137.403
-137.403
-137.402
-137.401
-137.399
-137.396
-137.392
-137.387
-137.381
-137.373
-137.365
-137.356
-137.345
-137.335
-137.324
-137.313
-137.302
-137.982
-137.983
-137.984
-137.985
-137.985
-137.985
-137.986
-137.986
-137.987
-137.987
-137.988
-137.988
-137.989
-137.989
-137.99
-137.99
-137.99
-137.99
-137.989
-137.988
-137.986
-137.983
-137.981
-137.978
-137.975
-137.972
-137.972
-137.982
-138.677
-138.678
-138.679
-138.679
-138.68
-138.681
-138.682
-138.683
-138.684
-138.686
-138.688
-138.69
-138.692
-138.695
-138.697
-138.7
-138.704
-138.707
-138.711
-138.716
-138.721
-138.726
-138.73
-138.734
-138.738
-138.741
-138.747
-138.75
-123.512
-123.512
-123.512
-123.513
-123.513
-123.513
-123.513
-123.513
-123.512
-123.512
-123.511
-123.51
-123.509
-123.507
-123.506
-123.505
-123.503
-123.501
-123.499
-123.496
-123.492
-123.487
-123.479
-123.468
-123.456
-123.439
-123.417
-123.393
-127.905
-127.905
-127.905
-127.905
-127.905
-127.904
-127.904
-127.905
-127.906
-127.908
-127.911
-127.914
-127.92
-127.926
-127.934
-127.944
-127.955
-127.967
-127.981
-127.997
-128.013
-128.032
-128.052
-128.074
-128.102
-128.141
-128.175
-128.244
-123.416
-123.416
-123.416
-123.417
-123.417
-123.417
-123.417
-123.417
-123.417
-123.418
-123.418
-123.418
-123.418
-123.418
-123.419
-123.419
-123.42
-123.42
-123.421
-123.422
-123.423
-123.424
-123.427
-123.43
-123.433
-123.439
-123.446
-123.452
-123.337
-123.337
-123.337
-123.337
-123.338
-123.338
-123.338
-123.339
-123.339
-123.34
-123.341
-123.342
-123.344
-123.346
-123.347
-123.349
-123.352
-123.354
-123.356
-123.359
-123.362
-123.366
-123.371
-123.377
-123.384
-123.395
-123.408
-123.426
-208.324
-208.324
-208.324
-208.325
-208.326
-208.327
-208.33
-208.334
-208.339
-208.344
-208.352
-208.36
-208.37
-208.382
-208.395
-208.41
-208.428
-208.447
-208.469
-208.494
-208.522
-208.553
-208.587
-208.625
-208.666
-208.711
-208.761
-208.81
-208.497
-208.496
-208.496
-208.497
-208.498
-208.501
-208.504
-208.508
-208.513
-208.52
-208.528
-208.537
-208.548
-208.561
-208.576
-208.592
-208.611
-208.632
-208.657
-208.684
-208.715
-208.749
-208.787
-208.829
-208.875
-208.924
-208.979
-209.036
-208.549
-208.549
-208.548
-208.549
-208.551
-208.554
-208.558
-208.564
-208.572
-208.582
-208.593
-208.606
-208.62
-208.637
-208.655
-208.675
-208.698
-208.723
-208.75
-208.78
-208.812
-208.846
-208.884
-208.925
-208.971
-209.022
-209.079
-209.136
-208.475
-208.474
-208.474
-208.475
-208.478
-208.482
-208.488
-208.495
-208.505
-208.516
-208.529
-208.545
-208.563
-208.582
-208.604
-208.628
-208.653
-208.68
-208.707
-208.736
-208.765
-208.796
-208.831
-208.87
-208.914
-208.962
-209.016
-209.074
-128.225
-128.224
-128.224
-128.225
-128.227
-128.229
-128.231
-128.233
-128.233
-128.232
-128.227
-128.219
-128.207
-128.19
-128.169
-128.144
-128.116
-128.086
-128.053
-128.02
-127.986
-127.951
-127.916
-127.88
-127.854
-127.821
-127.804
-127.784
-123.711
-123.711
-123.711
-123.711
-123.71
-123.71
-123.711
-123.712
-123.713
-123.717
-123.721
-123.727
-123.734
-123.742
-123.751
-123.761
-123.772
-123.786
-123.802
-123.822
-123.846
-123.877
-123.913
-123.954
-123.998
-124.049
-124.105
-124.172
-128.298
-128.298
-128.297
-128.297
-128.297
-128.297
-128.297
-128.296
-128.296
-128.294
-128.292
-128.29
-128.286
-128.283
-128.278
-128.273
-128.266
-128.256
-128.246
-128.234
-128.22
-128.206
-128.189
-128.172
-128.153
-128.136
-128.111
-128.074
-123.533
-123.534
-123.534
-123.534
-123.535
-123.535
-123.535
-123.535
-123.534
-123.534
-123.534
-123.534
-123.533
-123.533
-123.532
-123.531
-123.53
-123.528
-123.527
-123.527
-123.527
-123.527
-123.528
-123.526
-123.525
-123.519
-123.51
-123.52
-126.652
-126.65
-126.649
-126.648
-126.647
-126.647
-126.648
-126.648
-126.649
-126.65
-126.65
-126.65
-126.648
-126.645
-126.642
-126.638
-126.633
-126.625
-126.617
-126.609
-126.602
-126.596
-126.592
-126.59
-126.596
-126.592
-126.634
-126.611
-125.636
-125.635
-125.634
-125.632
-125.63
-125.629
-125.629
-125.63
-125.631
-125.634
-125.637
-125.642
-125.647
-125.653
-125.657
-125.661
-125.666
-125.673
-125.682
-125.692
-125.704
-125.716
-125.729
-125.74
-125.75
-125.743
-125.758
-125.669
-512.129
-511.794
-511.168
-510.28
-509.148
-507.682
-505.717
-503.108
-499.841
-495.984
-491.589
-486.733
-481.582
-476.252
-471.021
-465.527
-459.234
-452.168
-444.547
-436.826
-429.314
-422.068
-415.134
-408.236
-401.189
-393.912
-386.343
-378.689
-541.902
-541.967
-541.931
-541.6
-540.76
-539.213
-536.876
-533.657
-529.454
-524.373
-518.765
-512.831
-506.562
-500.048
-493.305
-486.37
-479.333
-472.155
-464.731
-457.198
-449.788
-442.252
-434.384
-426.261
-418.048
-409.686
-401.319
-392.823
-598.246
-597.812
-596.784
-594.643
-591.104
-586.081
-580.016
-573.306
-566.034
-558.308
-550.194
-541.861
-533.5
-525.126
-516.72
-508.227
-499.641
-491.002
-482.316
-473.608
-465.034
-456.644
-448.241
-439.71
-431.126
-422.424
-413.849
-405.003
-591.259
-590.904
-590.044
-588.412
-585.959
-582.691
-578.61
-573.819
-568.299
-561.977
-555.071
-547.88
-540.517
-533.02
-525.366
-517.528
-509.469
-501.176
-492.696
-484.087
-475.361
-466.531
-457.639
-448.6
-439.427
-430.064
-420.711
-411.09
-633.957
-633.393
-632.03
-629.291
-625.126
-619.855
-613.793
-607.077
-599.551
-591.25
-582.585
-573.746
-564.785
-555.713
-546.53
-537.225
-527.809
-518.307
-508.733
-499.087
-489.364
-479.555
-469.657
-459.67
-449.629
-439.476
-429.308
-419.025
-619.931
-619.79
-619.301
-618.299
-616.406
-613.101
-608.281
-602.094
-594.966
-587.259
-579.127
-570.743
-562.199
-553.532
-544.751
-535.852
-526.82
-517.627
-508.273
-498.785
-489.199
-479.534
-469.798
-459.966
-450.06
-440.003
-429.993
-419.72
-635.441
-634.864
-633.534
-631.387
-628.282
-623.743
-617.82
-610.787
-602.998
-594.757
-586.251
-577.587
-568.771
-559.804
-550.677
-541.384
-531.931
-522.337
-512.618
-502.776
-492.81
-482.712
-472.481
-462.12
-451.638
-441.016
-430.348
-419.587
-628.834
-628.658
-627.862
-625.944
-622.628
-617.881
-611.818
-604.76
-597.029
-588.892
-580.518
-571.961
-563.268
-554.448
-545.504
-536.433
-527.219
-517.846
-508.32
-498.657
-488.884
-479.007
-469.034
-458.966
-448.804
-438.529
-428.303
-417.792
-625.267
-624.971
-623.915
-621.687
-618.094
-613.091
-606.856
-599.7
-591.954
-583.861
-575.535
-567.047
-558.412
-549.635
-540.701
-531.6
-522.323
-512.877
-503.28
-493.534
-483.648
-473.616
-463.443
-453.128
-442.663
-432.089
-421.439
-410.68
-124.252
-124.251
-124.25
-124.249
-124.247
-124.246
-124.245
-124.244
-124.245
-124.248
-124.252
-124.258
-124.266
-124.276
-124.287
-124.3
-124.315
-124.331
-124.351
-124.375
-124.403
-124.435
-124.47
-124.507
-124.544
-124.582
-124.624
-124.666
-123.228
-123.228
-123.228
-123.228
-123.229
-123.229
-123.23
-123.231
-123.232
-123.234
-123.236
-123.238
-123.241
-123.244
-123.247
-123.251
-123.255
-123.259
-123.264
-123.269
-123.275
-123.282
-123.29
-123.3
-123.314
-123.332
-123.352
-123.379
-124.827
-124.826
-124.825
-124.823
-124.822
-124.82
-124.819
-124.82
-124.821
-124.825
-124.83
-124.838
-124.849
-124.861
-124.876
-124.894
-124.914
-124.939
-124.968
-125.004
-125.047
-125.099
-125.16
-125.229
-125.307
-125.393
-125.503
-125.602
-127.147
-127.147
-127.147
-127.147
-127.147
-127.147
-127.147
-127.148
-127.148
-127.149
-127.149
-127.15
-127.151
-127.153
-127.154
-127.156
-127.159
-127.161
-127.164
-127.168
-127.171
-127.175
-127.18
-127.184
-127.187
-127.191
-127.194
-127.199
-127.513
-127.513
-127.513
-127.512
-127.512
-127.511
-127.51
-127.508
-127.506
-127.504
-127.501
-127.498
-127.494
-127.49
-127.487
-127.483
-127.48
-127.479
-127.479
-127.481
-127.485
-127.491
-127.499
-127.509
-127.52