/*--------------------------------*- C++ -*----------------------------------*\
| =========                 |                                                 |
| \\      /  F ield         | OpenFOAM: The Open Source CFD Toolbox           |
|  \\    /   O peration     | Version:  2412                                  |
|   \\  /    A nd           | Website:  www.openfoam.com                      |
|    \\/     M anipulation  |                                                 |
\*---------------------------------------------------------------------------*/
FoamFile
{
    version     2.0;
    format      ascii;
    arch        "LSB;label=32;scalar=64";
    class       volVectorField;
    location    "2000";
    object      wallShearStress;
}
// * * * * * * * * * * * * * * * * * * * * * * * * * * * * * * * * * * * * * //

dimensions      [0 2 -2 0 0 0 0];

internalField   uniform (0 0 0);

boundaryField
{
    frontAndBack
    {
        type            empty;
    }
    symmetry
    {
        type            symmetryPlane;
    }
    outlet
    {
        type            calculated;
        value           uniform (0 0 0);
    }
    wall
    {
        type            calculated;
        value           nonuniform List<vector> 
1155
(
(0.0225596 -0.00134117 -1.98252e-23)
(0.022372 -0.0013008 2.53163e-21)
(0.0222264 -0.00126475 9.87786e-24)
(0.022087 -0.00122832 2.52002e-21)
(0.0219228 -0.00119142 2.66527e-27)
(0.0217877 -0.0011567 -2.49896e-21)
(0.0216432 -0.00112164 -2.15728e-26)
(0.0215147 -0.00108755 -9.76481e-24)
(0.0213302 -0.00105062 -2.50198e-21)
(0.0211787 -0.0010177 2.49689e-21)
(0.0210448 -0.000984207 -3.67342e-40)
(-0.49143 -0.000194738 0)
(-0.484094 -0.000229936 0)
(-0.476341 -0.000222489 0)
(-0.468416 -0.000225015 0)
(-0.460573 -0.000193503 0)
(-0.453606 -0.000194694 0)
(0.293269 -6.90848e-05 0)
(0.294291 -1.55759e-05 0)
(0.293047 2.81222e-05 0)
(0.289863 5.61882e-05 0)
(0.286599 4.64918e-05 0)
(-0.0812627 -0.00205694 0)
(0.0101903 -0.00159956 0)
(0.0672524 -0.000892309 0)
(0.129202 -0.00180631 0)
(0.228885 -0.00233613 0)
(0.319966 -0.00102289 0)
(-0.439646 -0.000135148 0)
(-0.438194 2.15203e-05 0)
(-0.442202 0.000240998 0)
(-0.452826 0.000322807 0)
(-0.465684 0.00034195 0)
(-0.479359 0.000287591 0)
(-0.378635 0.0457271 -1.67365e-19)
(-0.409203 0.0492838 1.65247e-19)
(-0.426572 0.0517721 -2.49687e-25)
(-0.447151 0.0552614 3.22465e-19)
(-0.471505 0.0589262 6.39906e-19)
(-0.489141 0.0615774 -6.15543e-22)
(-0.494243 0.0622908 3.14674e-19)
(0.0168546 -9.11262e-05 -5.88537e-22)
(0.0168764 -7.0916e-05 0)
(0.0168464 -5.06921e-05 -2.98107e-39)
(0.0168952 -3.19911e-05 -7.3548e-23)
(0.0169731 -1.257e-05 3.67474e-23)
(0.0171273 -4.04309e-06 0)
(0.0173076 -3.44559e-06 0)
(0.0174494 -3.58337e-06 0)
(0.0176128 -3.14362e-06 0)
(0.0177343 -3.2536e-06 0)
(0.0178997 -2.8272e-06 0)
(0.355551 -0.000200271 0)
(0.365325 -0.000230022 0)
(0.376268 -0.000229609 0)
(0.385994 -0.000204414 0)
(0.395464 -0.000214951 0)
(0.0178429 -0.0117964 2.16073e-25)
(0.0189824 -0.0122496 -1.32416e-22)
(0.02011 -0.0126767 -1.32789e-22)
(0.0212455 -0.01309 1.43618e-26)
(0.0223365 -0.0134601 -3.392e-20)
(0.0234215 -0.0138114 -4.70198e-38)
(0.0244563 -0.0141202 3.41087e-20)
(0.0254757 -0.0144142 8.0638e-26)
(0.0264118 -0.0146495 -4.10584e-20)
(-0.26002 -0.000254783 0)
(-0.243995 -0.000233241 0)
(0.0179686 -1.64299e-06 0)
(0.0180737 -2.71951e-06 0)
(0.0181818 -1.79684e-06 0)
(0.0182573 -2.13992e-06 0)
(0.018352 -1.97175e-06 0)
(0.0184523 -2.15592e-06 0)
(0.0185132 -1.03594e-06 0)
(0.0185795 -2.28564e-06 0)
(0.0186845 -9.86066e-07 0)
(0.0186823 -8.17647e-07 0)
(0.0187633 -1.59743e-06 0)
(-0.19227 -0.000212404 0)
(-0.181129 -0.000567485 0)
(-0.164755 -0.000622858 0)
(-0.168148 -0.000261764 0)
(-0.165058 9.89825e-05 0)
(0.0904984 -0.000289667 0)
(0.104645 -0.000389271 0)
(0.123344 -0.000491958 0)
(0.144124 -0.000540668 0)
(0.165515 -0.000489238 0)
(-0.22607 -9.09048e-05 0)
(-0.177758 -0.000235462 0)
(-0.223757 -5.67402e-05 0)
(-0.220837 -3.89139e-05 0)
(0.376789 0.000416345 0)
(0.362654 0.000454905 0)
(0.346642 0.000684014 0)
(0.331747 0.000546219 0)
(-0.14891 0.00101939 0)
(-0.252969 -0.000288801 0)
(-0.171809 0.000213745 0)
(-0.23406 -0.000273601 0)
(-0.220472 0.000812304 0)
(-0.248721 0.000336698 0)
(0.0155947 0.664573 2.93874e-39)
(-0.0573041 -0.285022 -2.46725e-21)
(0.227128 0.515511 -1.23685e-21)
(0.440297 1.56896 -3.89456e-22)
(0.462019 0.856496 -4.98823e-22)
(0.719783 1.57982 7.78894e-19)
(1.00354 1.42784 1.23018e-21)
(1.33406 1.85421 2.69351e-18)
(1.71285 1.94114 5.33017e-18)
(-0.264603 -0.000255899 0)
(-0.218433 -9.9013e-05 0)
(-0.263174 -3.16157e-05 0)
(0.0641874 0.000114759 0)
(0.0634009 -0.000190398 0)
(0.0740038 -0.000405245 0)
(0.090734 -0.000433488 0)
(0.106493 -0.000269552 0)
(-0.207582 -0.00013523 0)
(-0.137798 -0.000281187 0)
(-0.20179 -0.000149587 0)
(-0.129618 0.000290911 0)
(-0.213379 -0.000132766 0)
(-0.126352 2.43742e-05 0)
(-0.185247 0.00107077 0)
(-0.188456 -0.000266679 0)
(-0.180813 -1.64457e-06 0)
(-0.440895 -2.29907e-05 0)
(-0.440796 -0.00020913 0)
(-0.436858 -0.000189211 0)
(-0.434867 -0.000211065 0)
(-0.431417 -0.000179702 0)
(-0.177677 -0.000654897 0)
(-0.16795 -0.000526498 0)
(-0.0392801 -5.82717e-05 0)
(-0.159167 -0.000655452 0)
(-0.00831819 -0.000380856 0)
(0.100377 -1.66252e-05 0)
(0.115042 3.86261e-05 0)
(-0.406012 -0.000225879 0)
(-0.39698 -0.000219147 0)
(-0.388266 -0.000223981 0)
(-0.379504 -0.000216266 0)
(-0.371083 -0.00022304 0)
(-0.362315 -0.000219109 0)
(0.0323513 -0.00484039 -2.37538e-23)
(0.0321824 -0.00475996 -1.21406e-20)
(0.0320233 -0.00468223 2.36715e-23)
(0.0318621 -0.00460482 -1.20564e-20)
(0.0317027 -0.00452798 -2.93874e-39)
(0.0314616 -0.00443988 2.3344e-23)
(0.0312508 -0.00436003 -1.19555e-20)
(0.0310724 -0.00428389 6.78848e-37)
(0.0308897 -0.00420924 1.12224e-26)
(0.0307371 -0.00413818 -1.10478e-41)
(-0.35597 0.00562275 0)
(-0.520808 0.00301994 0)
(-0.633523 0.00290746 0)
(-0.774888 0.00403426 0)
(-0.928035 0.00297911 0)
(-1.02815 0.00104996 0)
(-0.404321 0.000308759 0)
(-0.419368 0.000110413 0)
(-0.426861 -4.06046e-06 0)
(-0.431361 -6.00473e-05 0)
(-0.435028 -2.35027e-05 0)
(0.451369 9.2026e-05 0)
(0.449146 0.000114406 0)
(0.446441 0.000143112 0)
(0.442088 0.000188688 0)
(0.436469 0.000209103 0)
(-0.0766599 0.0010589 0)
(-0.115365 0.000980885 0)
(-0.15702 0.0010242 0)
(-0.199177 0.000843268 0)
(-0.243128 0.00100419 0)
(0.00801791 -0.00686171 -6.6428e-20)
(0.00905447 -0.00749333 1.30221e-22)
(0.0100003 -0.00801922 1.3326e-19)
(0.0111279 -0.00865307 6.70477e-20)
(0.0121364 -0.00916377 6.70753e-20)
(0.0132953 -0.00975881 -3.37447e-20)
(0.0144053 -0.0102859 3.38145e-20)
(0.015536 -0.0108041 3.36187e-20)
(0.0166908 -0.0113124 2.63987e-22)
(0.601968 -0.0418292 -3.95485e-22)
(0.60495 -0.0428096 3.95466e-22)
(0.605112 -0.0435173 4.03986e-22)
(0.602148 -0.0440489 -4.03997e-22)
(0.596816 -0.0443819 0)
(0.588954 -0.0445161 -2.12007e-19)
(0.578015 -0.0443599 -2.86734e-24)
(0.747751 -0.152273 1.2343e-21)
(0.632255 -0.127641 -1.23585e-21)
(0.476449 -0.0960036 -3.28869e-19)
(0.329869 -0.0667649 2.58334e-21)
(0.203062 -0.0415729 -1.29885e-21)
(0.120878 -0.0255582 0)
(0.119195 -0.026898 -3.36273e-19)
(-0.429092 -0.000166688 0)
(-0.426961 -0.000258883 0)
(-0.417176 -0.000596809 0)
(-0.398659 -0.000968816 0)
(-0.367903 -0.000817646 0)
(0.0214414 -2.40516e-06 0)
(0.0215526 -2.39222e-06 0)
(0.0216687 -2.54814e-06 0)
(0.0217858 -2.47626e-06 0)
(0.0219058 -2.71248e-06 0)
(0.0220339 -2.67682e-06 0)
(0.0221595 -2.84736e-06 0)
(0.0222957 -2.88109e-06 0)
(0.0224294 -3.01597e-06 0)
(0.0225753 -3.13207e-06 0)
(0.0227191 -3.181e-06 0)
(0.0228715 -3.31835e-06 0)
(0.0230252 -3.33282e-06 0)
(0.0231833 -3.5028e-06 0)
(-0.29114 -0.000284725 0)
(-0.278685 -0.000270829 0)
(-0.266395 -0.000285551 0)
(-0.252369 -0.000377393 0)
(-0.233435 -0.000603975 0)
(-0.202557 -0.00106872 0)
(0.0343444 -0.015904 1.02139e-25)
(0.034937 -0.0159167 3.38857e-20)
(0.0354809 -0.0159075 3.37656e-20)
(0.0360108 -0.015893 -3.36418e-20)
(0.036522 -0.0158702 3.35794e-20)
(0.0369951 -0.0158313 6.57793e-23)
(0.0374369 -0.0157802 -3.52648e-36)
(0.0378463 -0.0157167 -3.34368e-20)
(0.0382199 -0.0156402 -3.34908e-20)
(0.0415334 -0.0130628 3.14262e-20)
(0.0415419 -0.0129089 0)
(0.0415427 -0.0127562 -5.50348e-27)
(0.0415393 -0.0126034 6.21642e-20)
(0.0414526 -0.0124295 -4.70198e-38)
(0.0414412 -0.0122827 -9.24354e-37)
(0.0414078 -0.0121294 9.22258e-38)
(0.0413564 -0.0119755 -5.96899e-23)
(0.0413267 -0.0118287 5.96916e-23)
(-0.0499633 -5.28286e-05 0)
(-0.0473553 -5.08606e-05 0)
(-0.044928 -5.40098e-05 0)
(-0.0420179 -6.17417e-05 0)
(0.0263635 -5.95503e-06 0)
(0.0266444 -6.17096e-06 0)
(0.0269359 -6.44149e-06 0)
(0.0272404 -6.68914e-06 0)
(0.0275557 -6.97973e-06 0)
(0.0278867 -7.29879e-06 0)
(0.0282306 -7.59352e-06 0)
(0.0285902 -7.96889e-06 0)
(0.0289671 -8.3276e-06 0)
(0.0293607 -8.72786e-06 0)
(0.0297739 -9.16498e-06 0)
(0.0302078 -9.61014e-06 0)
(0.0306618 -1.00906e-05 0)
(0.0311413 -1.06763e-05 0)
(0.0316469 -1.1226e-05 0)
(-0.0362428 -8.10569e-05 0)
(-0.0321342 -0.000103881 0)
(-0.0268206 -0.000147945 0)
(-0.0192917 -0.000237593 0)
(-1.03875 -0.00161227 0)
(-0.957371 -0.00407622 0)
(-0.766337 -0.0104285 0)
(-0.559649 -0.0038492 0)
(-0.354434 -0.00383622 0)
(-0.200271 -0.00245259 0)
(0.322353 -0.000158505 0)
(0.328076 -0.000146512 0)
(0.334062 -0.000131816 0)
(0.340019 -0.000128224 0)
(0.34684 -0.00015934 0)
(-0.284223 -0.000877182 0)
(-0.26985 -0.000287454 0)
(-0.262997 -8.73595e-05 0)
(-0.260118 0.000169384 0)
(-0.268209 0.000432672 0)
(0.0193487 -6.21485e-07 0)
(0.0193236 6.78062e-07 0)
(0.0193313 -8.88202e-07 0)
(0.0193633 1.12606e-07 0)
(0.0193505 -5.94991e-07 0)
(0.0193933 -2.50274e-07 0)
(0.0193854 -1.46386e-07 0)
(0.0193973 -9.24553e-08 0)
(0.0194013 -1.47619e-07 0)
(0.0194004 1.48493e-07 0)
(0.0194002 -2.22156e-07 0)
(0.185122 -0.000452834 0)
(0.204164 -0.000440402 0)
(0.22081 -0.000394682 0)
(0.235857 -0.000329362 0)
(0.246806 -0.000225609 0)
(0.678294 -0.544328 1.63928e-18)
(1.38025 -1.03313 1.86553e-18)
(0.641909 -0.458083 -5.41426e-19)
(-1.11906 0.979698 1.77868e-18)
(-1.22235 0.981391 -1.36149e-23)
(-0.544901 0.445021 6.20993e-21)
(-0.200698 0.17571 1.71003e-22)
(-0.0821243 0.0413919 -3.05948e-21)
(0.623908 -0.627014 1.89819e-18)
(0.000146974 0.0014936 0)
(-1.9287e-05 0.000570506 1.97281e-21)
(-3.99203e-05 0.000504467 -1.12774e-37)
(-5.32329e-05 0.00035555 -2.93874e-39)
(-1.81479e-05 8.22115e-05 1.58368e-20)
(-3.34541e-05 0.000133789 -3.17324e-20)
(2.99795e-05 -0.000117836 -3.17138e-20)
(2.97631e-05 -9.76735e-05 -1.24342e-22)
(0.000107871 -0.000286644 -3.1821e-20)
(0.0373312 -0.0076835 1.3563e-20)
(0.0371583 -0.00756606 5.26757e-23)
(0.0370047 -0.00745422 -5.26769e-23)
(0.0368349 -0.00734033 -2.68152e-20)
(0.0366681 -0.00722902 -1.33566e-20)
(0.0365001 -0.00711857 -5.18882e-23)
(0.0363264 -0.0070087 1.33072e-20)
(0.0361594 -0.00690163 0)
(0.0359915 -0.00679577 -0)
(2.02026 1.87661 5.24538e-18)
(2.31139 1.76473 6.01853e-36)
(2.09587 1.32653 -2.51648e-18)
(1.49711 0.701686 -1.83056e-19)
(-0.744921 -0.235792 6.58277e-37)
(-0.480525 -0.165583 -2.4749e-21)
(-0.656703 -0.0695834 1.35252e-18)
(-1.42755 0.207692 -7.69528e-19)
(-0.509598 0.301712 -3.63935e-21)
(0.0328564 -0.0566092 -6.01941e-21)
(0.653702 -0.408357 -8.492e-19)
(0.108734 -0.048893 0)
(-0.550708 0.403811 -8.27794e-19)
(-0.955273 0.661685 7.52316e-37)
(-0.692979 0.463798 -6.99201e-21)
(-0.276733 0.15032 -6.12381e-19)
(-0.529333 0.0875764 4.38156e-23)
(-0.301716 0.0532392 0)
(-0.0905568 0.0121251 -2.45194e-19)
(0.0969495 -0.0243161 2.53358e-19)
(0.285403 -0.0621 2.60437e-19)
(0.46803 -0.0991557 -2.71453e-19)
(0.62969 -0.13181 1.14697e-21)
(0.742759 -0.153915 -1.13407e-21)
(-0.2309 0.0706467 3.91911e-21)
(-0.196738 0.0614161 0)
(-0.167691 0.0530497 6.80935e-19)
(-0.142566 0.0456185 6.85973e-19)
(-0.123425 0.0408199 3.76158e-37)
(-0.146085 0.0504865 7.72211e-20)
(-0.199698 0.068543 -1.33312e-21)
(-0.477766 0.0609023 -3.13394e-19)
(-0.465666 0.0604586 6.10054e-22)
(-0.469003 0.0617895 -6.0574e-22)
(-0.471071 0.0628916 6.05698e-22)
(-0.472305 0.0637202 1.24911e-25)
(-0.468617 0.0639621 -5.97958e-22)
(0.0450804 -3.46531e-05 0)
(0.0467604 -3.88704e-05 0)
(0.0486462 -4.38565e-05 0)
(0.0507844 -5.01843e-05 0)
(0.0532416 -5.80521e-05 0)
(0.0560948 -6.82159e-05 0)
(0.0594716 -8.18029e-05 0)
(0.0635481 -0.00010045 0)
(0.0685993 -0.00012743 0)
(0.0750823 -0.000168723 0)
(0.0837841 -0.000237236 0)
(0.0962466 -0.000356647 0)
(0.115167 -0.000620428 0)
(0.149851 -0.00122812 0)
(0.332353 -0.0281579 4.2147e-22)
(0.27976 -0.0237551 -4.21888e-22)
(0.219426 -0.0184687 -2.13416e-19)
(0.148253 -0.0120045 -4.22003e-19)
(0.065043 -0.0032668 2.07945e-19)
(-0.0322565 0.00686026 0)
(0.018816 -4.90719e-07 0)
(0.0188426 -5.84518e-07 0)
(0.0188711 -5.9877e-07 0)
(0.0189017 -6.94666e-07 0)
(0.018936 -6.84963e-07 0)
(0.0189668 -6.42804e-07 0)
(0.0189977 -8.56173e-07 0)
(0.0190504 -1.16493e-06 0)
(0.0190991 -8.84248e-07 0)
(0.0191372 -8.80891e-07 0)
(0.0191796 -9.10825e-07 0)
(0.0192263 -1.02235e-06 0)
(0.0192715 -9.06705e-07 0)
(0.0193161 -1.03612e-06 0)
(0.206288 -0.00806378 -1.23584e-36)
(0.225393 -0.00914591 5.60487e-41)
(0.245836 -0.0102443 1.02434e-39)
(0.265044 -0.0113242 -1.17549e-38)
(0.283796 -0.0124573 -8.011e-20)
(0.302745 -0.0136221 -8.06949e-20)
(0.173232 -0.000542344 2.75506e-40)
(0.158898 -0.000704449 -1.60038e-36)
(0.140542 -0.000689718 1.33123e-43)
(0.124608 -0.000815489 -6.25059e-26)
(0.117481 -0.00118342 -1.81561e-20)
(0.123962 -0.00168366 -7.10976e-23)
(-0.0470853 -0.043356 -2.5567e-37)
(0.558471 -1.86834 3.63445e-21)
(1.03132 -3.17102 -1.49284e-18)
(0.0614326 0.451294 -3.90891e-20)
(-1.36023 6.8993 7.4098e-19)
(-1.1488 4.46344 4.13688e-22)
(0.494552 -4.26362 4.86725e-19)
(0.152873 -0.794542 2.74231e-20)
(-0.152734 -0.000360769 0)
(-0.509896 0.241369 3.77981e-22)
(0.0253123 -0.0285073 -7.21214e-19)
(0.266245 -0.142155 -1.52134e-18)
(0.0497993 -0.0195892 -6.06306e-23)
(-0.102494 0.067504 -7.77473e-23)
(-0.221847 0.136029 3.22336e-21)
(-0.362982 0.224937 -7.58574e-19)
(-0.581625 0.355292 7.52316e-37)
(0.0407237 -0.0145188 -3.25132e-20)
(0.0408609 -0.0143795 -3.23475e-20)
(0.0409974 -0.0142425 -6.32003e-23)
(0.0411067 -0.0140991 -3.21374e-20)
(0.0412108 -0.0139568 3.20301e-20)
(0.0412969 -0.0138114 -3.19841e-20)
(0.0413725 -0.013665 -6.21458e-23)
(0.0414276 -0.0135149 6.21478e-23)
(0.0414783 -0.0133664 -3.15907e-20)
(0.0415076 -0.0132135 -6.17114e-23)
(0.156198 -0.000223256 0)
(0.166836 -0.000368133 0)
(0.181516 -0.000460705 -1.75029e-40)
(0.195919 -0.000723245 1.40394e-37)
(0.207357 -0.000644904 4.46705e-21)
(0.193758 -0.000264106 -8.95882e-21)
(0.426185 -0.022804 3.34414e-22)
(0.444711 -0.0243549 -8.70175e-20)
(0.462239 -0.0258646 -1.17549e-38)
(0.47968 -0.0274515 3.50006e-22)
(0.496983 -0.0290227 -7.04558e-22)
(0.51236 -0.0305518 -9.08798e-20)
(0.527834 -0.0321529 -3.63112e-22)
(-0.0621448 -6.51742e-05 0)
(-0.0589096 -6.98328e-05 0)
(-0.0557011 -6.84596e-05 0)
(-0.0526073 -6.017e-05 0)
(-0.149281 -0.00185524 0)
(-0.0634504 -0.00335551 0)
(0.0472637 -0.00347352 0)
(0.128609 -0.000286623 0)
(0.0614816 0.00505633 0)
(-0.0927349 0.00881789 0)
(0.313776 0.00049761 0)
(0.295017 0.000495287 0)
(0.275353 0.000489778 0)
(0.25437 0.000514431 0)
(0.232302 0.000520811 0)
(0.0286344 -0.00332002 -5.72517e-21)
(0.0284402 -0.00325379 4.4243e-23)
(0.028274 -0.00319409 5.62386e-21)
(0.0281394 -0.00313638 -5.31368e-27)
(0.0279752 -0.00307749 -5.61156e-21)
(0.0278554 -0.00302306 -5.59434e-21)
(0.0276997 -0.00296511 -5.5775e-21)
(0.0275042 -0.00290334 5.56032e-21)
(0.0273361 -0.0028473 1.46937e-39)
(0.0271941 -0.00279295 -2.15596e-23)
(0.102164 -0.000116503 0)
(0.107481 -0.000214103 0)
(-0.174558 -0.000213289 0)
(-0.181629 -0.000325872 0)
(-0.165011 0.000115051 0)
(-0.169554 0.000218326 0)
(-0.175835 0.000198157 0)
(-0.183179 0.000211938 0)
(-0.190947 6.35875e-05 0)
(0.0412452 -0.0116709 -5.92344e-23)
(0.0412008 -0.0115248 -3.02106e-20)
(0.0410445 -0.0113504 3.00929e-20)
(0.0409692 -0.011204 -2.99784e-20)
(0.0408878 -0.0110551 -2.99192e-20)
(0.04078 -0.0109037 -1.17549e-38)
(0.040706 -0.0107619 7.7601e-39)
(0.0405852 -0.0106114 -5.76448e-23)
(0.0404881 -0.0104686 2.95139e-20)
(0.040366 -0.0103222 -2.93413e-20)
(0.115264 -0.000214141 0)
(0.122528 -0.000203617 0)
(0.131034 -0.00011089 0)
(0.129426 0.000164127 0)
(0.116243 0.000359966 0)
(-0.0783341 -8.2192e-05 0)
(-0.0745322 -0.000115196 0)
(-0.0695651 -9.35597e-05 0)
(-0.0654416 -7.24674e-05 0)
(-0.167328 0.000191342 0)
(0.0270463 -0.00273927 -5.46821e-21)
(0.0268803 -0.00268293 -6.34046e-26)
(0.0267073 -0.00262878 -4.27985e-23)
(0.0265726 -0.00257741 2.13707e-23)
(0.0264083 -0.00252497 5.4686e-21)
(0.0262914 -0.00247602 -1.06548e-23)
(0.0260798 -0.00241917 -1.05932e-23)
(0.0259434 -0.0023718 1.05335e-23)
(0.0258069 -0.00232305 -1.05336e-23)
(0.025661 -0.00227509 4.26417e-27)
(0.404594 -0.000195496 0)
(0.413209 -0.000178101 0)
(0.420419 -0.000141531 0)
(0.427067 -0.000143537 0)
(0.433345 -0.000103608 0)
(0.437947 -7.4743e-05 0)
(0.441917 -4.82934e-05 0)
(0.444529 -2.20766e-05 0)
(0.446968 -2.30196e-05 0)
(0.0183417 1.68488e-07 0)
(0.0183336 1.58619e-07 0)
(0.0183324 4.98204e-08 0)
(0.0183316 7.89693e-08 0)
(0.0183298 -3.20674e-08 0)
(0.0183372 -1.01632e-07 0)
(0.0183406 -7.21654e-08 0)
(0.0183478 -9.57489e-08 0)
(0.0183487 -2.56934e-08 0)
(0.0183567 -1.85367e-07 0)
(0.0183625 -3.85248e-08 0)
(0.0183677 -1.96215e-07 0)
(0.0183772 -1.09228e-07 0)
(0.29291 -0.000124087 0)
(0.297992 -0.000167973 0)
(0.3039 -0.000161397 0)
(0.309799 -0.000181082 0)
(0.316319 -0.000174357 0)
(-0.163228 0.0842592 4.03406e-23)
(-0.36329 0.171792 -2.98465e-39)
(-0.250327 0.112085 0)
(0.147268 -0.0941352 -7.32898e-19)
(0.633574 -0.306898 -2.18172e-35)
(0.18938 -0.0718079 1.12076e-35)
(-0.67189 0.366071 9.40395e-38)
(-0.878576 0.452369 3.46859e-20)
(0.0341078 -0.00571039 -5.87747e-39)
(0.0339451 -0.00562079 1.25819e-20)
(0.0337327 -0.0055226 -2.44394e-23)
(0.0335402 -0.00543175 1.24912e-20)
(0.0333833 -0.0053456 2.43523e-23)
(0.0332003 -0.00525787 1.23775e-20)
(0.0330581 -0.00517632 2.41788e-23)
(0.0328839 -0.00509124 2.40066e-23)
(0.0327215 -0.00500808 -2.40072e-23)
(0.03251 -0.00491948 -1.22262e-20)
(0.0358261 -0.0066918 -3.52648e-38)
(0.0356616 -0.00658937 -1.3057e-20)
(0.0354948 -0.00648763 1.17549e-38)
(0.0353295 -0.00638765 1.29596e-20)
(0.0351616 -0.00628832 2.51699e-23)
(0.0349933 -0.0061902 1.2838e-20)
(0.0348119 -0.00609076 -2.56554e-20)
(0.0346368 -0.00599439 2.49838e-23)
(0.0344659 -0.00589944 1.26959e-20)
(0.034297 -0.00580612 2.48e-23)
(-0.601272 0.104059 2.77158e-19)
(-0.550766 0.0982724 2.74469e-19)
(-0.587398 0.110072 -2.77987e-19)
(-0.723065 0.136185 1.02391e-21)
(-0.833044 0.155756 -9.86439e-22)
(-0.848598 0.156959 -2.42903e-19)
(-0.761725 0.138865 -2.37775e-19)
(0.256746 -0.000208422 0)
(0.265974 -0.00015204 0)
(0.274302 -0.000177498 0)
(0.283376 -0.000155469 0)
(0.289556 -0.000108198 0)
(-0.446178 -0.000186946 0)
(-0.439253 -0.000198699 0)
(-0.431308 -0.000217012 0)
(-0.422963 -0.000223691 0)
(-0.414566 -0.000208375 0)
(0.0188126 1.16738e-07 0)
(0.0188115 3.21978e-07 0)
(0.0187877 1.52022e-07 0)
(0.0188028 2.19994e-07 0)
(0.0187535 1.11641e-06 0)
(0.01873 2.08484e-07 0)
(0.0187147 8.08621e-07 0)
(0.0186826 1.73064e-07 0)
(0.0186841 5.59718e-07 0)
(0.0186449 5.77091e-07 0)
(0.0186306 5.3902e-07 0)
(0.0186035 4.90809e-07 0)
(0.0188148 -8.31994e-07 0)
(0.0188441 -9.07559e-07 0)
(0.0188936 -8.95174e-07 0)
(0.0189236 -3.3817e-07 0)
(0.0189233 -2.48293e-07 0)
(0.0189549 -7.52463e-07 0)
(0.0189798 -4.16518e-07 0)
(0.0190073 -8.66671e-07 0)
(0.0190458 -7.06053e-07 0)
(0.019081 -8.81652e-07 0)
(0.0191112 -6.62145e-07 0)
(0.138665 -0.0306161 6.76375e-19)
(0.0727009 -0.0153644 -3.41168e-19)
(0.0870329 -0.0209698 3.44095e-19)
(0.146994 -0.0358267 -3.46929e-19)
(0.20504 -0.0497122 1.34894e-21)
(0.275915 -0.0667636 0)
(0.324351 -0.0784484 3.41462e-24)
(0.349647 -0.0851415 1.91753e-37)
(3.11609 -1.87311 -3.69654e-21)
(7.61824 -5.47226 2.41938e-18)
(6.10634 -9.89132 1.29707e-20)
(1.7332 -10.373 7.21632e-19)
(-1.82127 -8.09373 1.59046e-21)
(-3.46321 -5.27711 -5.73674e-19)
(-3.04563 -2.16734 -2.80286e-19)
(-1.72957 -0.463917 -4.70061e-20)
(-0.372426 -0.0626641 4.58443e-37)
(0.342002 0.000874311 0)
(0.297521 0.00202241 0)
(0.222095 0.00192493 0)
(0.166958 0.000990617 0)
(0.148244 0.000245794 0)
(0.15065 -0.000114815 0)
(-0.460772 0.0635019 -3.04186e-19)
(-0.449369 0.0626093 -3.04346e-19)
(-0.435947 0.0613404 6.04013e-19)
(-0.420214 0.059739 3.00362e-19)
(-0.4012 0.0574863 9.40395e-38)
(-0.37564 0.0541631 0)
(-0.342008 0.0495475 2.89302e-19)
(0.0832947 0.000581387 0)
(0.0538199 0.000549725 0)
(0.0240987 0.000743787 0)
(-0.00745722 0.00130997 0)
(-0.0409222 0.00114535 0)
(0.449075 -2.69651e-06 0)
(0.450736 6.6287e-06 0)
(0.451695 2.54107e-05 0)
(0.452366 2.82576e-05 0)
(0.452492 6.20463e-05 0)
(0.03901 -0.00894206 1.41568e-20)
(0.0388327 -0.00880565 -1.41016e-20)
(0.0386696 -0.00867443 2.79822e-20)
(0.0385093 -0.00854596 0)
(0.0383144 -0.0084105 -1.38814e-20)
(0.0381295 -0.00828139 1.17549e-38)
(0.0379711 -0.00815828 1.3774e-20)
(0.0377948 -0.00803433 -1.36678e-20)
(0.0376535 -0.00791827 1.35612e-20)
(0.0374801 -0.00779768 1.36688e-20)
(0.0185313 -3.5241e-07 0)
(0.018554 -5.45558e-07 0)
(0.0185776 -4.69091e-07 0)
(0.0186018 -5.45341e-07 0)
(0.018623 -3.30832e-07 0)
(0.0186382 -4.57915e-07 0)
(0.0186628 -3.56515e-07 0)
(0.0186736 -2.11108e-07 0)
(0.0186845 -2.79598e-07 0)
(0.018705 -5.87769e-07 0)
(0.0187394 -6.90106e-07 0)
(0.0187678 -5.7407e-07 0)
(0.0187934 -5.09965e-07 0)
(-0.160209 -0.0523669 2.2364e-20)
(-0.0275009 -0.0178386 -7.05774e-23)
(-0.0134794 -0.0114767 3.21649e-20)
(-0.00261959 -0.00387213 -1.8739e-24)
(-0.465324 0.04845 2.86965e-24)
(-0.411641 0.0422684 -2.99784e-20)
(-0.3521 0.0359205 1.36052e-20)
(-0.285403 0.0309145 -3.41587e-19)
(-0.263987 0.0292463 -1.96039e-22)
(-0.276661 0.0331752 -1.80253e-19)
(-0.32852 0.0397986 3.94966e-36)
(-0.285644 0.000833011 0)
(-0.321328 0.000575846 0)
(-0.349821 0.00033191 0)
(-0.369449 0.000160167 0)
(-0.385137 0.00024182 0)
(0.0193519 4.06782e-07 0)
(0.0193327 1.78387e-07 0)
(0.0193284 2.8987e-07 0)
(0.0193186 -2.64709e-08 0)
(0.0193245 -2.68323e-08 0)
(0.0193269 -6.69233e-08 0)
(0.0193223 8.61158e-08 0)
(0.0193291 4.6772e-08 0)
(0.0193013 9.20891e-07 0)
(0.019268 3.55382e-07 0)
(0.0192579 5.26877e-07 0)
(0.0192366 2.19567e-07 0)
(0.542525 -0.0337481 3.62996e-22)
(0.558013 -0.0354212 4.70198e-38)
(0.571027 -0.0368891 -3.83218e-19)
(0.582118 -0.0383652 -1.94567e-19)
(0.592815 -0.0397629 -3.86386e-22)
(0.598999 -0.0408434 3.86346e-22)
(0.196612 -0.00416791 3.69049e-20)
(0.198451 -0.00434452 -7.24115e-23)
(0.194416 -0.00438272 7.43456e-20)
(0.185548 -0.00432117 5.87747e-39)
(0.17514 -0.00428654 -3.74363e-20)
(0.167223 -0.00436167 -1.46937e-39)
(-0.0889459 -6.5561e-05 0)
(-0.0849191 -3.78044e-05 0)
(-0.082414 -8.57639e-06 0)
(-0.0811746 -5.35044e-05 0)
(-0.35365 -0.000248107 0)
(-0.345045 -0.000324868 0)
(-0.335992 -0.000206855 0)
(-0.326171 -0.000263198 0)
(-0.315453 -0.000273941 0)
(-0.303793 -0.000282456 0)
(0.00745956 -0.000482221 0)
(0.0280307 -0.000560642 0)
(0.0505494 -0.000484695 0)
(0.0671686 -0.000191514 0)
(0.0703423 0.000124819 0)
(1.17656 -1.15358 2.14501e-18)
(1.06461 -1.04195 2.39044e-18)
(0.546132 -0.544839 -3.00927e-36)
(0.325361 -0.32551 -6.22827e-23)
(-0.576551 0.767601 4.71041e-21)
(-1.47871 1.77433 1.74065e-18)
(-1.24449 1.53628 -1.67478e-21)
(-0.388587 0.460554 2.27322e-18)
(0.0185894 3.55988e-07 0)
(0.0185771 2.27802e-07 0)
(0.0185719 1.14552e-07 0)
(0.0185698 1.44906e-08 0)
(0.0185715 1.61266e-07 0)
(0.0185537 3.17467e-07 0)
(0.0185532 -2.04563e-07 0)
(0.0185638 2.0346e-07 0)
(0.0185367 4.62961e-07 0)
(0.0185284 1.86693e-07 0)
(0.0185163 3.51602e-07 0)
(0.0185043 1.69274e-07 0)
(0.0184981 2.76793e-07 0)
(0.267947 -0.42086 5.20028e-21)
(0.595403 -0.875358 1.39181e-18)
(0.426092 -0.608353 2.91181e-19)
(-0.00367444 0.0818945 -1.19324e-18)
(-0.309506 0.585549 -3.03244e-22)
(-0.264462 0.49528 -1.57869e-22)
(-0.186086 0.404809 -1.51361e-18)
(-0.282775 0.623456 -1.0872e-22)
(0.210861 -0.00456835 0)
(0.0305542 -0.00406405 -3.25408e-37)
(0.0303426 -0.00398678 2.28643e-23)
(0.0301655 -0.00391712 1.16949e-20)
(0.030016 -0.00384964 1.16332e-20)
(0.0298438 -0.00378158 2.26556e-23)
(0.0297186 -0.00371838 1.15805e-20)
(0.0294961 -0.00364405 -1.15655e-20)
(0.0293255 -0.00357849 -6.23012e-37)
(0.0291502 -0.00351199 -5.75688e-21)
(0.0289704 -0.00344624 2.23655e-23)
(0.0287845 -0.00338045 2.22247e-23)
(0.41883 -0.108284 7.88343e-19)
(0.371048 -0.0963843 -5.63561e-19)
(0.317862 -0.0825714 -6.21326e-24)
(0.255163 -0.0670672 -1.58744e-18)
(0.179846 -0.0471374 -3.76158e-37)
(0.0947222 -0.0235277 -7.81778e-19)
(-0.00206895 0.00403755 1.54293e-18)
(-0.100437 0.03128 1.51431e-18)
(-0.145823 -0.000406833 0)
(-0.128565 -0.000388158 0)
(-0.111426 -0.000320944 0)
(-0.0972044 -0.000201003 0)
(0.562988 -0.0438386 4.17852e-22)
(0.543456 -0.0429042 -2.15816e-19)
(0.519253 -0.0415399 -4.33939e-19)
(0.491278 -0.0397536 -2.54412e-24)
(0.453798 -0.0366685 2.91282e-27)
(0.422924 -0.0349354 0)
(0.378891 -0.0317552 -2.17329e-19)
(0.283698 3.16492e-05 0)
(0.282617 -1.65453e-05 0)
(0.282838 -4.01893e-05 0)
(0.284805 -0.000111022 0)
(0.289178 -0.00011952 0)
(0.0184849 2.35296e-07 0)
(0.0184764 3.33915e-07 0)
(0.0184605 8.12235e-08 0)
(0.0184726 1.82164e-07 0)
(0.0184358 8.36543e-07 0)
(0.0184185 1.09604e-07 0)
(0.0184143 4.1536e-07 0)
(0.0183969 7.37818e-08 0)
(0.0183993 3.23284e-07 0)
(0.0183763 3.81459e-07 0)
(0.0183636 4.32575e-07 0)
(0.0183452 2.7669e-07 0)
(0.0402552 -0.0101805 -2.91687e-20)
(0.0401189 -0.010035 -2.25442e-25)
(0.0400047 -0.00989714 2.89398e-20)
(0.0398605 -0.00975382 1.44409e-20)
(0.0397331 -0.00961717 -1.17549e-38)
(0.0395864 -0.00947729 -1.43268e-20)
(0.0394494 -0.00934271 -1.42707e-20)
(0.0392997 -0.00920601 -1.41584e-20)
(0.0391523 -0.00907329 -1.42136e-20)
(0.0321792 -1.18915e-05 0)
(0.0327444 -1.25799e-05 0)
(0.0333405 -1.33277e-05 0)
(0.0339747 -1.41881e-05 0)
(0.0346493 -1.51097e-05 0)
(0.0353688 -1.61487e-05 0)
(0.0361382 -1.72808e-05 0)
(0.0369622 -1.85698e-05 0)
(0.0378503 -2.00389e-05 0)
(0.0388084 -2.1677e-05 0)
(0.0398478 -2.35746e-05 0)
(0.0409783 -2.5694e-05 0)
(0.0422136 -2.82328e-05 0)
(0.0435755 -3.11897e-05 0)
(0.0201742 -1.41065e-06 0)
(0.0202438 -1.63871e-06 0)
(0.0203214 -1.57783e-06 0)
(0.0203969 -1.76463e-06 0)
(0.0204819 -1.75169e-06 0)
(0.0205631 -1.84369e-06 0)
(0.0206514 -1.80538e-06 0)
(0.0207325 -1.83687e-06 0)
(0.0208247 -2.01934e-06 0)
(0.0209182 -2.03007e-06 0)
(0.0210159 -2.17807e-06 0)
(0.0211188 -2.23878e-06 0)
(0.0212254 -2.3084e-06 0)
(0.0213313 -2.28636e-06 0)
(0.0183835 -1.4618e-07 0)
(0.0183868 1.94066e-08 0)
(0.0183892 -1.02708e-07 0)
(0.0183933 -3.60391e-08 0)
(0.018401 -3.02112e-07 0)
(0.0184173 -2.99232e-07 0)
(0.0184346 -4.93512e-07 0)
(0.0184571 -3.20017e-07 0)
(0.0184668 -3.0226e-07 0)
(0.0184842 -2.64711e-07 0)
(0.0184918 -1.02381e-07 0)
(0.0184972 -2.16587e-07 0)
(0.0185158 -3.79367e-07 0)
(-0.0681227 0.00835571 -6.04545e-22)
(0.0328647 -0.00904134 -9.44223e-24)
(0.12014 -0.0189962 3.15481e-19)
(0.0429855 0.00280679 -1.88079e-37)
(-0.230449 0.052642 -3.08615e-19)
(-0.529845 0.0962057 2.91835e-19)
(-0.627792 0.10951 -5.63803e-19)
(0.0191526 -8.55579e-07 0)
(0.0191653 -4.36518e-07 0)
(0.0192152 -9.70577e-07 0)
(0.0192065 6.04566e-07 0)
(0.0192093 -1.03275e-06 0)
(0.019253 1.39741e-07 0)
(0.0192289 -4.976e-07 0)
(0.0192764 -3.51031e-07 0)
(0.0192712 -4.02405e-07 0)
(0.0193086 -3.80953e-07 0)
(0.0193 -3.00734e-07 0)
(0.0191046 2.96091e-07 0)
(0.0191027 3.47293e-07 0)
(0.0190746 4.72399e-07 0)
(0.0190678 1.62334e-07 0)
(0.0190566 3.27157e-07 0)
(0.0190485 -5.86404e-08 0)
(0.0190585 -6.56103e-08 0)
(0.0190571 -7.67639e-08 0)
(0.0190635 7.18592e-08 0)
(0.0190483 3.98423e-07 0)
(0.0190322 4.50868e-07 0)
(0.0190061 6.63821e-07 0)
(0.018982 3.85838e-07 0)
(-0.375393 0.000905765 0)
(-0.407769 0.000728775 0)
(-0.432706 0.000345771 0)
(-0.444776 -3.05684e-05 0)
(-0.444519 -0.000216674 0)
(-0.490702 0.000184799 0)
(-0.49744 3.769e-05 0)
(-0.499788 -3.78166e-05 0)
(-0.499259 -0.000117233 0)
(-0.496103 -0.000147115 0)
(0.023924 -0.00173424 -1.01458e-23)
(0.0238118 -0.0016944 2.60671e-26)
(0.0236441 -0.0016503 -1.03393e-20)
(0.0234869 -0.00160942 -5.1721e-21)
(0.0233533 -0.00156955 2.4966e-26)
(0.0232064 -0.00152967 1.00446e-23)
(0.0230611 -0.00148996 -9.99574e-24)
(0.0229281 -0.00145248 9.99588e-24)
(0.0228098 -0.0014151 -1.56015e-40)
(0.0226704 -0.00137766 9.92434e-24)
(0.0189701 4.3325e-07 0)
(0.0189478 3.15417e-07 0)
(0.0189458 1.13958e-07 0)
(0.0189343 3.4076e-07 0)
(0.0189206 3.05908e-07 0)
(0.0189048 2.727e-07 0)
(0.018903 2.93516e-07 0)
(0.0188686 8.42822e-07 0)
(0.018847 2.09312e-07 0)
(0.0188386 4.70927e-07 0)
(0.0188214 3.87862e-08 0)
(0.0188265 1.95361e-07 0)
(-0.160742 0.059242 -6.77499e-19)
(-0.12808 0.0476981 -2.93403e-35)
(-0.0946418 0.0355249 -6.31828e-38)
(-0.0613801 0.0230531 -1.34171e-21)
(-0.0259657 0.00906026 6.90688e-19)
(0.0119539 -0.00616917 -6.92641e-19)
(0.053314 -0.0228531 1.0739e-23)
(0.0921021 -0.0389345 -1.36936e-21)
(-0.298503 0.0425061 5.07814e-36)
(-0.256997 0.0377367 -3.16845e-19)
(-0.208092 0.0307221 -1.88079e-37)
(-0.16599 0.0250847 3.01383e-19)
(-0.138495 0.0215902 -5.89198e-22)
(-0.130738 0.0208585 -1.96513e-19)
(-0.130943 0.0209728 3.03447e-19)
(-0.123866 0.0189755 0)
(0.320134 -0.0147562 8.13329e-20)
(0.337829 -0.0159904 1.6092e-22)
(0.355295 -0.0172247 -8.2903e-20)
(0.37275 -0.0185582 -2.32748e-36)
(0.39115 -0.0199495 8.43194e-20)
(0.408717 -0.0213367 -3.34963e-22)
(0.0255445 -0.00222863 -3.87913e-37)
(0.0253326 -0.00217486 -5.33011e-21)
(0.0251941 -0.00213 -1.04168e-23)
(0.0250554 -0.0020837 -1.03601e-23)
(0.0249171 -0.00203865 2.06926e-23)
(0.0247537 -0.00199076 -2.77564e-26)
(0.0245788 -0.00194467 -5.28968e-21)
(0.0244531 -0.00190185 1.02776e-23)
(0.0242999 -0.00185781 -1.26274e-40)
(0.0241795 -0.00181646 -1.01978e-23)
(0.024046 -0.00177471 5.22482e-21)
(0.027397 -0.0149061 -2.70169e-23)
(0.0283022 -0.0150973 -3.37884e-20)
(0.0291891 -0.0152751 -3.42727e-20)
(0.0300258 -0.0154253 -3.39944e-20)
(0.0308414 -0.0155598 4.70198e-38)
(0.031601 -0.0156622 -1.33085e-22)