/*--------------------------------*- C++ -*----------------------------------*\
| =========                 |                                                 |
| \\      /  F ield         | OpenFOAM: The Open Source CFD Toolbox           |
|  \\    /   O peration     | Version:  2412                                  |
|   \\  /    A nd           | Website:  www.openfoam.com                      |
|    \\/     M anipulation  |                                                 |
\*---------------------------------------------------------------------------*/
FoamFile
{
    version     2.0;
    format      ascii;
    arch        "LSB;label=32;scalar=64";
    class       volScalarField;
    location    "1500";
    object      p;
}
// * * * * * * * * * * * * * * * * * * * * * * * * * * * * * * * * * * * * * //

dimensions      [0 2 -2 0 0 0 0];

internalField   nonuniform List<scalar> 
360650
(
-4.64411
-4.64412
-4.64413
-4.64414
-4.64415
-4.64418
-4.6442
-4.64424
-4.64429
-4.64436
-4.64444
-4.64455
-4.64468
-4.64484
-4.64504
-4.64528
-4.64556
-4.6459
-4.6463
-4.64677
-4.64731
-4.64794
-4.64865
-4.64947
-4.65041
-4.65146
-4.65265
-4.65411
-4.63352
-4.63353
-4.63354
-4.63355
-4.63356
-4.63358
-4.63361
-4.63365
-4.63369
-4.63375
-4.63383
-4.63392
-4.63404
-4.63418
-4.63435
-4.63456
-4.63481
-4.6351
-4.63544
-4.63583
-4.63628
-4.6368
-4.63738
-4.63803
-4.63875
-4.63954
-4.64044
-4.64139
-4.6231
-4.62311
-4.62312
-4.62313
-4.62314
-4.62316
-4.62319
-4.62323
-4.62327
-4.62333
-4.62341
-4.62351
-4.62363
-4.62378
-4.62396
-4.62418
-4.62444
-4.62474
-4.6251
-4.62551
-4.62599
-4.62654
-4.62715
-4.62785
-4.62862
-4.62947
-4.63041
-4.63136
-4.6128
-4.61281
-4.61282
-4.61283
-4.61285
-4.61287
-4.61289
-4.61293
-4.61298
-4.61304
-4.61312
-4.61322
-4.61334
-4.61349
-4.61367
-4.6139
-4.61416
-4.61448
-4.61485
-4.61529
-4.61579
-4.61638
-4.61705
-4.61781
-4.61869
-4.61968
-4.62081
-4.62204
-4.6026
-4.60261
-4.60262
-4.60263
-4.60265
-4.60267
-4.60269
-4.60273
-4.60277
-4.60283
-4.6029
-4.603
-4.60311
-4.60325
-4.60342
-4.60362
-4.60386
-4.60414
-4.60447
-4.60486
-4.6053
-4.60581
-4.60638
-4.60703
-4.60776
-4.60857
-4.60945
-4.61037
-4.5927
-4.59271
-4.59272
-4.59273
-4.59275
-4.59277
-4.59279
-4.59283
-4.59287
-4.59293
-4.593
-4.59309
-4.5932
-4.59334
-4.59351
-4.59372
-4.59396
-4.59425
-4.59458
-4.59497
-4.59542
-4.59593
-4.59652
-4.59717
-4.59791
-4.59872
-4.59959
-4.60059
-4.58281
-4.58282
-4.58283
-4.58284
-4.58286
-4.58287
-4.5829
-4.58294
-4.58298
-4.58304
-4.58312
-4.58321
-4.58333
-4.58348
-4.58365
-4.58387
-4.58413
-4.58443
-4.58479
-4.58521
-4.5857
-4.58625
-4.5869
-4.58762
-4.58845
-4.58937
-4.59039
-4.59159
-4.5732
-4.57321
-4.57322
-4.57323
-4.57325
-4.57327
-4.57329
-4.57333
-4.57337
-4.57343
-4.57351
-4.5736
-4.57372
-4.57387
-4.57405
-4.57426
-4.57452
-4.57483
-4.57519
-4.57562
-4.57611
-4.57669
-4.57735
-4.57811
-4.57898
-4.57997
-4.5811
-4.58246
-4.56351
-4.56352
-4.56353
-4.56354
-4.56355
-4.56357
-4.5636
-4.56363
-4.56367
-4.56372
-4.56379
-4.56387
-4.56398
-4.56411
-4.56426
-4.56445
-4.56467
-4.56494
-4.56524
-4.5656
-4.56601
-4.56648
-4.56701
-4.5676
-4.56826
-4.569
-4.56982
-4.57063
-4.55433
-4.55433
-4.55434
-4.55435
-4.55437
-4.55439
-4.55441
-4.55444
-4.55449
-4.55454
-4.55461
-4.5547
-4.55481
-4.55494
-4.55511
-4.55531
-4.55554
-4.55582
-4.55615
-4.55653
-4.55697
-4.55747
-4.55804
-4.55869
-4.55941
-4.56022
-4.56108
-4.56198
-4.54497
-4.54498
-4.54498
-4.545
-4.54501
-4.54503
-4.54505
-4.54509
-4.54513
-4.54518
-4.54525
-4.54534
-4.54545
-4.54559
-4.54575
-4.54595
-4.54619
-4.54647
-4.54681
-4.5472
-4.54765
-4.54818
-4.54879
-4.54948
-4.55027
-4.55116
-4.55217
-4.55335
-90.4119
-90.4124
-90.4132
-90.4141
-90.4153
-90.4167
-90.4183
-90.4202
-90.4222
-90.4245
-90.4271
-90.43
-90.4331
-90.4363
-90.4395
-90.4425
-90.4451
-90.4471
-90.448
-90.4475
-90.445
-90.4396
-90.4303
-90.4161
-90.3984
-90.3864
-90.3818
-90.3472
-90.9181
-90.9185
-90.9192
-90.9204
-90.9219
-90.9239
-90.9264
-90.9294
-90.933
-90.9373
-90.9424
-90.9482
-90.955
-90.9627
-90.9716
-90.9817
-90.9934
-91.0069
-91.0226
-91.0411
-91.063
-91.0892
-91.1206
-91.1598
-91.2175
-91.3163
-91.4524
-91.5704
-91.2685
-91.2688
-91.2694
-91.2704
-91.2717
-91.2734
-91.2755
-91.2779
-91.2807
-91.284
-91.2876
-91.2917
-91.2963
-91.3013
-91.3068
-91.3128
-91.3195
-91.3271
-91.3358
-91.346
-91.3584
-91.3735
-91.3926
-91.4175
-91.4491
-91.487
-91.5419
-91.6215
-91.5184
-91.5185
-91.5189
-91.5195
-91.5205
-91.5218
-91.5235
-91.5255
-91.5278
-91.5306
-91.5339
-91.5377
-91.5422
-91.5474
-91.5535
-91.5606
-91.5689
-91.5786
-91.5896
-91.6023
-91.6169
-91.6338
-91.6531
-91.6748
-91.6985
-91.7267
-91.7516
-91.7489
-91.6052
-91.6052
-91.6053
-91.6054
-91.6057
-91.6062
-91.6068
-91.6076
-91.6086
-91.6099
-91.6115
-91.6135
-91.616
-91.619
-91.6228
-91.6274
-91.6332
-91.6402
-91.6489
-91.6597
-91.6734
-91.6906
-91.7124
-91.7396
-91.7731
-91.8186
-91.8683
-91.8993
-91.6972
-91.6972
-91.6972
-91.6971
-91.697
-91.6969
-91.6968
-91.6968
-91.6969
-91.6972
-91.6976
-91.6983
-91.6994
-91.7009
-91.703
-91.706
-91.71
-91.7154
-91.7228
-91.7328
-91.7466
-91.7657
-91.7914
-91.8234
-91.862
-91.9128
-91.9687
-92.0176
-132.355
-132.355
-132.355
-132.355
-132.355
-132.356
-132.356
-132.357
-132.359
-132.362
-132.365
-132.37
-132.377
-132.384
-132.393
-132.404
-132.415
-132.427
-132.44
-132.454
-132.469
-132.484
-132.5
-132.516
-132.532
-132.548
-132.564
-132.58
-131.773
-131.773
-131.772
-131.773
-131.773
-131.773
-131.774
-131.775
-131.777
-131.781
-131.785
-131.792
-131.8
-131.81
-131.822
-131.836
-131.851
-131.867
-131.885
-131.904
-131.924
-131.945
-131.966
-131.988
-132.01
-132.033
-132.055
-132.076
-131.163
-131.163
-131.163
-131.163
-131.163
-131.163
-131.164
-131.166
-131.169
-131.173
-131.178
-131.186
-131.196
-131.209
-131.223
-131.24
-131.26
-131.281
-131.303
-131.328
-131.354
-131.381
-131.41
-131.44
-131.47
-131.501
-131.532
-131.562
-130.508
-130.508
-130.508
-130.508
-130.508
-130.508
-130.509
-130.512
-130.515
-130.52
-130.527
-130.537
-130.549
-130.565
-130.584
-130.606
-130.63
-130.657
-130.686
-130.718
-130.751
-130.787
-130.824
-130.863
-130.902
-130.943
-130.984
-131.024
-129.807
-129.807
-129.806
-129.806
-129.807
-129.807
-129.809
-129.811
-129.815
-129.822
-129.831
-129.843
-129.859
-129.879
-129.903
-129.93
-129.962
-129.996
-130.034
-130.074
-130.118
-130.163
-130.211
-130.261
-130.313
-130.365
-130.419
-130.471
-117.235
-117.235
-117.236
-117.236
-117.236
-117.237
-117.237
-117.238
-117.238
-117.239
-117.24
-117.241
-117.242
-117.244
-117.246
-117.248
-117.25
-117.253
-117.256
-117.26
-117.265
-117.27
-117.276
-117.283
-117.291
-117.299
-117.309
-117.32
-118.06
-118.061
-118.061
-118.061
-118.062
-118.062
-118.063
-118.063
-118.064
-118.065
-118.066
-118.067
-118.069
-118.07
-118.072
-118.074
-118.077
-118.08
-118.083
-118.087
-118.092
-118.097
-118.103
-118.111
-118.119
-118.127
-118.138
-118.154
-118.891
-118.891
-118.892
-118.892
-118.892
-118.893
-118.894
-118.894
-118.895
-118.896
-118.898
-118.899
-118.901
-118.903
-118.905
-118.908
-118.911
-118.914
-118.918
-118.922
-118.927
-118.932
-118.938
-118.945
-118.952
-118.961
-118.968
-118.98
-119.708
-119.708
-119.708
-119.709
-119.709
-119.709
-119.71
-119.711
-119.712
-119.713
-119.714
-119.716
-119.717
-119.719
-119.722
-119.724
-119.727
-119.731
-119.735
-119.739
-119.743
-119.748
-119.754
-119.76
-119.767
-119.774
-119.782
-119.786
-120.526
-120.526
-120.527
-120.527
-120.527
-120.528
-120.529
-120.529
-120.53
-120.532
-120.533
-120.535
-120.537
-120.54
-120.543
-120.546
-120.55
-120.555
-120.56
-120.565
-120.571
-120.579
-120.586
-120.595
-120.605
-120.616
-120.628
-120.637
-121.336
-121.336
-121.336
-121.336
-121.337
-121.337
-121.338
-121.339
-121.34
-121.341
-121.343
-121.345
-121.347
-121.35
-121.353
-121.357
-121.361
-121.366
-121.372
-121.378
-121.385
-121.393
-121.402
-121.412
-121.422
-121.434
-121.448
-121.458
-85.0467
-85.0475
-85.0483
-85.0491
-85.05
-85.051
-85.0522
-85.0536
-85.0554
-85.0576
-85.0603
-85.0634
-85.0672
-85.0715
-85.0764
-85.0819
-85.088
-85.0946
-85.1018
-85.1094
-85.1175
-85.1259
-85.1346
-85.1435
-85.1525
-85.1612
-85.1705
-85.1792
-85.3661
-85.3668
-85.3677
-85.3685
-85.3693
-85.3702
-85.3712
-85.3725
-85.374
-85.3758
-85.378
-85.3807
-85.3838
-85.3874
-85.3915
-85.3961
-85.4013
-85.407
-85.4131
-85.4198
-85.4268
-85.4342
-85.4419
-85.4499
-85.4581
-85.4667
-85.4763
-85.4843
-85.7321
-85.7329
-85.7337
-85.7344
-85.7351
-85.7358
-85.7366
-85.7376
-85.7387
-85.7401
-85.7418
-85.7438
-85.7463
-85.7491
-85.7524
-85.7562
-85.7604
-85.7651
-85.7702
-85.7757
-85.7815
-85.7876
-85.7939
-85.8004
-85.8073
-85.8144
-85.8223
-85.8308
-86.1272
-86.1279
-86.1287
-86.1294
-86.13
-86.1306
-86.1313
-86.1321
-86.133
-86.1341
-86.1354
-86.137
-86.1389
-86.1411
-86.1437
-86.1465
-86.1496
-86.1529
-86.1564
-86.16
-86.1634
-86.1666
-86.1693
-86.1714
-86.1725
-86.1723
-86.1717
-86.1682
-86.5717
-86.5724
-86.5732
-86.5738
-86.5745
-86.5751
-86.5758
-86.5767
-86.5776
-86.5788
-86.5802
-86.5818
-86.5838
-86.5861
-86.5888
-86.5918
-86.5952
-86.5988
-86.6028
-86.607
-86.6114
-86.6158
-86.6202
-86.6244
-86.6283
-86.6322
-86.6359
-86.6339
-87.0391
-87.0398
-87.0405
-87.0412
-87.0418
-87.0424
-87.0432
-87.0439
-87.0449
-87.046
-87.0473
-87.0489
-87.0508
-87.0529
-87.0554
-87.0581
-87.0612
-87.0644
-87.0679
-87.0715
-87.0752
-87.0786
-87.0818
-87.0843
-87.086
-87.0865
-87.0841
-87.0791
-135.36
-135.361
-135.361
-135.361
-135.361
-135.362
-135.362
-135.362
-135.363
-135.364
-135.365
-135.367
-135.369
-135.372
-135.375
-135.379
-135.384
-135.39
-135.397
-135.405
-135.414
-135.423
-135.432
-135.441
-135.45
-135.457
-135.465
-135.467
-135.308
-135.308
-135.309
-135.309
-135.309
-135.309
-135.309
-135.31
-135.31
-135.311
-135.311
-135.313
-135.314
-135.316
-135.319
-135.323
-135.327
-135.332
-135.337
-135.343
-135.349
-135.355
-135.361
-135.367
-135.372
-135.376
-135.378
-135.377
-135.259
-135.26
-135.262
-135.264
-135.265
-135.266
-135.267
-135.269
-135.271
-135.273
-135.275
-135.278
-135.281
-135.285
-135.288
-135.291
-135.295
-135.297
-135.299
-135.3
-135.301
-135.301
-135.3
-135.299
-135.296
-135.294
-135.293
-135.288
-135.337
-135.338
-135.338
-135.338
-135.339
-135.339
-135.339
-135.339
-135.34
-135.34
-135.341
-135.341
-135.342
-135.342
-135.342
-135.341
-135.34
-135.337
-135.332
-135.326
-135.317
-135.308
-135.296
-135.281
-135.262
-135.241
-135.214
-135.179
-135.427
-135.427
-135.428
-135.429
-135.429
-135.43
-135.43
-135.431
-135.431
-135.431
-135.432
-135.432
-135.432
-135.432
-135.431
-135.429
-135.425
-135.42
-135.412
-135.401
-135.386
-135.368
-135.344
-135.316
-135.284
-135.246
-135.203
-135.158
-135.53
-135.531
-135.531
-135.532
-135.532
-135.533
-135.534
-135.535
-135.536
-135.537
-135.537
-135.538
-135.538
-135.537
-135.535
-135.531
-135.525
-135.516
-135.504
-135.487
-135.465
-135.438
-135.405
-135.365
-135.318
-135.265
-135.206
-135.137
-135.632
-135.632
-135.633
-135.633
-135.634
-135.636
-135.637
-135.638
-135.64
-135.641
-135.642
-135.641
-135.64
-135.636
-135.631
-135.623
-135.613
-135.601
-135.586
-135.567
-135.542
-135.513
-135.476
-135.433
-135.384
-135.327
-135.264
-135.192
-4.32951
-4.32951
-4.32952
-4.32952
-4.32952
-4.32953
-4.32954
-4.32956
-4.32958
-4.3296
-4.32964
-4.32968
-4.32974
-4.32981
-4.3299
-4.33
-4.33013
-4.33029
-4.33047
-4.33068
-4.33092
-4.33121
-4.33153
-4.3319
-4.33232
-4.33278
-4.33325
-4.33385
-4.32654
-4.32654
-4.32654
-4.32655
-4.32655
-4.32656
-4.32657
-4.32658
-4.3266
-4.32662
-4.32666
-4.3267
-4.32676
-4.32683
-4.32692
-4.32702
-4.32715
-4.32731
-4.32749
-4.32771
-4.32797
-4.32828
-4.32864
-4.32906
-4.32955
-4.33013
-4.3308
-4.33175
-4.32372
-4.32372
-4.32372
-4.32373
-4.32373
-4.32373
-4.32374
-4.32375
-4.32376
-4.32378
-4.3238
-4.32383
-4.32387
-4.32391
-4.32397
-4.32404
-4.32411
-4.32421
-4.32431
-4.32443
-4.32457
-4.32473
-4.3249
-4.32509
-4.32529
-4.3255
-4.32573
-4.32592
-4.3213
-4.3213
-4.3213
-4.3213
-4.3213
-4.3213
-4.32131
-4.32131
-4.32133
-4.32134
-4.32136
-4.32139
-4.32143
-4.32148
-4.32153
-4.3216
-4.32168
-4.32178
-4.3219
-4.32204
-4.3222
-4.32238
-4.32259
-4.32283
-4.32309
-4.32339
-4.32373
-4.32404
-4.31871
-4.31871
-4.31871
-4.3187
-4.3187
-4.3187
-4.3187
-4.3187
-4.31871
-4.31872
-4.31873
-4.31875
-4.31877
-4.3188
-4.31884
-4.31888
-4.31894
-4.31901
-4.31909
-4.31918
-4.3193
-4.31943
-4.31959
-4.31977
-4.31997
-4.32021
-4.32047
-4.32076
-4.31648
-4.31647
-4.31647
-4.31646
-4.31645
-4.31645
-4.31645
-4.31645
-4.31645
-4.31645
-4.31645
-4.31646
-4.31648
-4.3165
-4.31652
-4.31655
-4.31659
-4.31664
-4.3167
-4.31677
-4.31686
-4.31696
-4.31708
-4.31721
-4.31736
-4.31753
-4.31771
-4.31791
-4.31357
-4.31357
-4.31356
-4.31355
-4.31355
-4.31354
-4.31354
-4.31354
-4.31354
-4.31354
-4.31355
-4.31355
-4.31356
-4.31358
-4.3136
-4.31363
-4.31367
-4.31372
-4.31378
-4.31386
-4.31395
-4.31405
-4.31418
-4.31433
-4.3145
-4.3147
-4.31492
-4.31515
-4.3108
-4.31079
-4.31078
-4.31078
-4.31077
-4.31077
-4.31077
-4.31077
-4.31077
-4.31077
-4.31077
-4.31078
-4.31079
-4.31081
-4.31083
-4.31086
-4.3109
-4.31095
-4.31101
-4.31108
-4.31118
-4.31128
-4.31142
-4.31157
-4.31175
-4.31196
-4.31221
-4.31246
-4.30756
-4.30755
-4.30755
-4.30754
-4.30754
-4.30754
-4.30753
-4.30753
-4.30753
-4.30753
-4.30754
-4.30754
-4.30755
-4.30756
-4.30758
-4.30761
-4.30764
-4.30768
-4.30774
-4.3078
-4.30788
-4.30797
-4.30808
-4.30822
-4.30837
-4.30855
-4.30876
-4.30897
-4.3043
-4.30429
-4.30429
-4.30428
-4.30428
-4.30427
-4.30427
-4.30427
-4.30427
-4.30428
-4.30428
-4.30429
-4.30431
-4.30432
-4.30435
-4.30438
-4.30443
-4.30448
-4.30455
-4.30463
-4.30472
-4.30483
-4.30497
-4.30512
-4.30529
-4.30549
-4.30567
-4.30592
-4.30085
-4.30085
-4.30084
-4.30084
-4.30084
-4.30084
-4.30084
-4.30084
-4.30084
-4.30085
-4.30086
-4.30087
-4.3009
-4.30092
-4.30096
-4.30101
-4.30108
-4.30116
-4.30126
-4.30138
-4.30154
-4.30173
-4.30196
-4.30225
-4.30261
-4.30304
-4.30355
-4.30433
-113.133
-113.133
-113.132
-113.131
-113.13
-113.13
-113.129
-113.129
-113.13
-113.131
-113.133
-113.137
-113.143
-113.152
-113.164
-113.181
-113.203
-113.236
-113.286
-113.365
-113.498
-113.71
-114
-114.341
-114.72
-115.118
-115.541
-115.955
-112.195
-112.194
-112.194
-112.193
-112.192
-112.191
-112.191
-112.19
-112.19
-112.191
-112.192
-112.195
-112.199
-112.206
-112.216
-112.229
-112.247
-112.273
-112.31
-112.366
-112.454
-112.602
-112.844
-113.172
-113.562
-113.983
-114.439
-114.887
-111.334
-111.334
-111.333
-111.332
-111.331
-111.331
-111.33
-111.329
-111.329
-111.329
-111.329
-111.331
-111.334
-111.339
-111.346
-111.357
-111.371
-111.39
-111.418
-111.458
-111.521
-111.621
-111.796
-112.071
-112.445
-112.87
-113.349
-113.814
-110.513
-110.512
-110.512
-110.511
-110.51
-110.509
-110.508
-110.507
-110.506
-110.505
-110.504
-110.505
-110.506
-110.509
-110.513
-110.52
-110.53
-110.544
-110.562
-110.588
-110.628
-110.692
-110.801
-110.985
-111.281
-111.665
-112.12
-112.577
-109.786
-109.786
-109.785
-109.784
-109.783
-109.782
-109.781
-109.779
-109.777
-109.776
-109.775
-109.774
-109.774
-109.776
-109.778
-109.783
-109.79
-109.8
-109.814
-109.833
-109.86
-109.902
-109.973
-110.09
-110.296
-110.611
-111.04
-111.494
-8.06712
-8.06707
-8.06704
-8.06706
-8.06714
-8.06733
-8.06766
-8.06818
-8.06896
-8.07006
-8.07158
-8.0736
-8.07624
-8.07961
-8.08384
-8.08907
-8.09544
-8.10308
-8.11214
-8.12273
-8.13498
-8.14899
-8.16485
-8.18264
-8.2024
-8.22417
-8.24802
-8.27356
-8.07628
-8.07624
-8.07621
-8.07623
-8.07632
-8.07651
-8.07684
-8.07737
-8.07815
-8.07925
-8.08075
-8.08275
-8.08535
-8.08867
-8.09281
-8.09792
-8.10412
-8.11153
-8.12029
-8.1305
-8.14227
-8.1557
-8.17085
-8.18777
-8.20651
-8.22707
-8.24941
-8.27352
-8.08378
-8.08374
-8.08372
-8.08374
-8.08383
-8.08403
-8.08437
-8.0849
-8.08569
-8.0868
-8.08831
-8.09031
-8.0929
-8.09619
-8.1003
-8.10535
-8.11146
-8.11876
-8.12735
-8.13736
-8.14888
-8.162
-8.17678
-8.19328
-8.21153
-8.23153
-8.25332
-8.27681
-8.08917
-8.08913
-8.08911
-8.08913
-8.08923
-8.08943
-8.08978
-8.09032
-8.0911
-8.09221
-8.09371
-8.0957
-8.09826
-8.10151
-8.10556
-8.11052
-8.11651
-8.12365
-8.13204
-8.14181
-8.15303
-8.16579
-8.18016
-8.1962
-8.21393
-8.2334
-8.25461
-8.2772
-8.09293
-8.0929
-8.09288
-8.09291
-8.09301
-8.09321
-8.09356
-8.0941
-8.09489
-8.09599
-8.09748
-8.09945
-8.10198
-8.10519
-8.10917
-8.11403
-8.11989
-8.12686
-8.13505
-8.14454
-8.15543
-8.16781
-8.18172
-8.19721
-8.21433
-8.23309
-8.25341
-8.27547
-8.09465
-8.09462
-8.0946
-8.09463
-8.09474
-8.09494
-8.09529
-8.09583
-8.09661
-8.09771
-8.09919
-8.10113
-8.10363
-8.10678
-8.11068
-8.11544
-8.12116
-8.12795
-8.13591
-8.14512
-8.15567
-8.16764
-8.18107
-8.19602
-8.21252
-8.23054
-8.25016
-8.2714
-8.09482
-8.09478
-8.09477
-8.09483
-8.09497
-8.09521
-8.09557
-8.0961
-8.09687
-8.09795
-8.09941
-8.10132
-8.10377
-8.10685
-8.11066
-8.1153
-8.12087
-8.12746
-8.13516
-8.14408
-8.15427
-8.1658
-8.17873
-8.1931
-8.20892
-8.22619
-8.24499
-8.26491
-8.09314
-8.0931
-8.09309
-8.09317
-8.09336
-8.09365
-8.09405
-8.0946
-8.09538
-8.09645
-8.09789
-8.09978
-8.10219
-8.10523
-8.10897
-8.11352
-8.11898
-8.12542
-8.13295
-8.14165
-8.15158
-8.16282
-8.1754
-8.18937
-8.20475
-8.22155
-8.23974
-8.2591
-8.09009
-8.09007
-8.09006
-8.0901
-8.09022
-8.09044
-8.09079
-8.09134
-8.09212
-8.09319
-8.09463
-8.0965
-8.09889
-8.10188
-8.10556
-8.11002
-8.11536
-8.12165
-8.129
-8.13747
-8.14714
-8.15806
-8.17029
-8.18385
-8.19879
-8.2151
-8.23276
-8.25184
-157.477
-157.478
-157.478
-157.479
-157.479
-157.481
-157.482
-157.484
-157.487
-157.491
-157.495
-157.501
-157.507
-157.515
-157.525
-157.536
-157.549
-157.565
-157.582
-157.603
-157.626
-157.653
-157.682
-157.714
-157.749
-157.788
-157.831
-157.885
-161.519
-161.519
-161.52
-161.52
-161.521
-161.522
-161.523
-161.525
-161.527
-161.53
-161.534
-161.539
-161.544
-161.551
-161.559
-161.568
-161.579
-161.592
-161.607
-161.624
-161.644
-161.666
-161.691
-161.719
-161.751
-161.784
-161.818
-161.866
-4.29697
-4.29697
-4.29697
-4.29696
-4.29696
-4.29696
-4.29696
-4.29696
-4.29695
-4.29695
-4.29695
-4.29695
-4.29695
-4.29696
-4.29696
-4.29697
-4.29698
-4.29699
-4.297
-4.29701
-4.29703
-4.29705
-4.29707
-4.29709
-4.2971
-4.29711
-4.29713
-4.29713
-4.29346
-4.29345
-4.29345
-4.29345
-4.29344
-4.29344
-4.29344
-4.29344
-4.29344
-4.29344
-4.29344
-4.29345
-4.29345
-4.29346
-4.29348
-4.29349
-4.29351
-4.29354
-4.29357
-4.29361
-4.29365
-4.2937
-4.29376
-4.29382
-4.29387
-4.29393
-4.29397
-4.29396
-4.28935
-4.28935
-4.28935
-4.28934
-4.28934
-4.28934
-4.28934
-4.28934
-4.28934
-4.28934
-4.28935
-4.28935
-4.28936
-4.28937
-4.28939
-4.28941
-4.28944
-4.28947
-4.28952
-4.28957
-4.28964
-4.28972
-4.28982
-4.28994
-4.29008
-4.29027
-4.29049
-4.29075
-4.28555
-4.28555
-4.28554
-4.28554
-4.28554
-4.28554
-4.28554
-4.28553
-4.28553
-4.28553
-4.28553
-4.28553
-4.28554
-4.28554
-4.28554
-4.28555
-4.28556
-4.28557
-4.28559
-4.2856
-4.28563
-4.28565
-4.28569
-4.28573
-4.28577
-4.28583
-4.28589
-4.28593
-4.28132
-4.28132
-4.28132
-4.28132
-4.28131
-4.28131
-4.28131
-4.28131
-4.28131
-4.28131
-4.28132
-4.28132
-4.28133
-4.28134
-4.28135
-4.28136
-4.28138
-4.28141
-4.28143
-4.28147
-4.28151
-4.28155
-4.28159
-4.28164
-4.28169
-4.28174
-4.28178
-4.28179
-4.27737
-4.27737
-4.27737
-4.27737
-4.27737
-4.27736
-4.27737
-4.27737
-4.27737
-4.27738
-4.27738
-4.27739
-4.27741
-4.27743
-4.27746
-4.27749
-4.27753
-4.27758
-4.27765
-4.27774
-4.27784
-4.27797
-4.27813
-4.27832
-4.27856
-4.27884
-4.27919
-4.27961
-4.27279
-4.27279
-4.27279
-4.27279
-4.27278
-4.27278
-4.27278
-4.27278
-4.27278
-4.27278
-4.27278
-4.27278
-4.27278
-4.27278
-4.27277
-4.27277
-4.27277
-4.27277
-4.27277
-4.27276
-4.27275
-4.27274
-4.27273
-4.27271
-4.27268
-4.27264
-4.2726
-4.27252
-4.26876
-4.26876
-4.26875
-4.26875
-4.26875
-4.26875
-4.26875
-4.26875
-4.26876
-4.26876
-4.26877
-4.26878
-4.26879
-4.26881
-4.26883
-4.26886
-4.2689
-4.26894
-4.26899
-4.26905
-4.26912
-4.26921
-4.2693
-4.2694
-4.26951
-4.26963
-4.26975
-4.2698
-4.26404
-4.26404
-4.26404
-4.26404
-4.26404
-4.26404
-4.26404
-4.26404
-4.26405
-4.26405
-4.26406
-4.26407
-4.26408
-4.2641
-4.26412
-4.26415
-4.26419
-4.26424
-4.2643
-4.26437
-4.26447
-4.26459
-4.26475
-4.26495
-4.2652
-4.26551
-4.2659
-4.26648
-4.25952
-4.25952
-4.25952
-4.25952
-4.25952
-4.25952
-4.25952
-4.25952
-4.25952
-4.25951
-4.25951
-4.25951
-4.2595
-4.25949
-4.25948
-4.25947
-4.25945
-4.25943
-4.2594
-4.25936
-4.25931
-4.25925
-4.25917
-4.25907
-4.25893
-4.25876
-4.25857
-4.25829
-4.25502
-4.25502
-4.25502
-4.25501
-4.25501
-4.25501
-4.25501
-4.25502
-4.25502
-4.25502
-4.25502
-4.25503
-4.25504
-4.25505
-4.25506
-4.25508
-4.25509
-4.25512
-4.25515
-4.25518
-4.25522
-4.25526
-4.25531
-4.25536
-4.25541
-4.25545
-4.25548
-4.25542
-191.36
-191.36
-191.359
-191.36
-191.361
-191.362
-191.364
-191.367
-191.371
-191.376
-191.381
-191.388
-191.397
-191.407
-191.418
-191.432
-191.447
-191.465
-191.485
-191.508
-191.534
-191.562
-191.594
-191.63
-191.67
-191.712
-191.761
-191.813
-191.956
-191.956
-191.956
-191.956
-191.957
-191.958
-191.961
-191.963
-191.967
-191.972
-191.978
-191.985
-191.993
-192.002
-192.014
-192.027
-192.042
-192.059
-192.078
-192.1
-192.125
-192.153
-192.184
-192.219
-192.257
-192.299
-192.345
-192.394
-192.443
-192.443
-192.443
-192.443
-192.444
-192.446
-192.448
-192.451
-192.455
-192.459
-192.465
-192.472
-192.48
-192.49
-192.501
-192.513
-192.528
-192.544
-192.563
-192.584
-192.608
-192.634
-192.664
-192.697
-192.733
-192.772
-192.815
-192.86
-184.247
-184.246
-184.247
-184.247
-184.248
-184.249
-184.251
-184.254
-184.258
-184.262
-184.267
-184.273
-184.281
-184.289
-184.299
-184.31
-184.322
-184.336
-184.352
-184.37
-184.39
-184.413
-184.438
-184.466
-184.496
-184.53
-184.567
-184.603
-185.535
-185.535
-185.535
-185.535
-185.536
-185.538
-185.54
-185.543
-185.546
-185.551
-185.556
-185.563
-185.57
-185.579
-185.589
-185.601
-185.615
-185.63
-185.647
-185.667
-185.689
-185.714
-185.741
-185.772
-185.807
-185.844
-185.887
-185.933
-141.091
-141.091
-141.091
-141.091
-141.09
-141.089
-141.089
-141.088
-141.087
-141.085
-141.084
-141.082
-141.081
-141.078
-141.076
-141.072
-141.068
-141.064
-141.058
-141.052
-141.044
-141.036
-141.026
-141.014
-141.002
-140.988
-140.972
-140.959
-140.37
-140.37
-140.369
-140.369
-140.369
-140.368
-140.367
-140.366
-140.365
-140.364
-140.362
-140.361
-140.359
-140.357
-140.354
-140.351
-140.347
-140.343
-140.338
-140.332
-140.326
-140.318
-140.309
-140.299
-140.287
-140.275
-140.26
-140.248
-139.686
-139.686
-139.685
-139.685
-139.684
-139.684
-139.683
-139.682
-139.681
-139.679
-139.677
-139.675
-139.673
-139.67
-139.667
-139.664
-139.66
-139.655
-139.651
-139.645
-139.639
-139.633
-139.625
-139.617
-139.609
-139.601
-139.589
-139.581
-139.044
-139.044
-139.043
-139.043
-139.043
-139.042
-139.042
-139.041
-139.039
-139.038
-139.036
-139.034
-139.032
-139.029
-139.025
-139.021
-139.017
-139.013
-139.008
-139.002
-138.996
-138.99
-138.983
-138.976
-138.969
-138.961
-138.954
-138.941
-138.436
-138.436
-138.436
-138.435
-138.435
-138.435
-138.434
-138.433
-138.432
-138.43
-138.428
-138.425
-138.421
-138.417
-138.412
-138.406
-138.4
-138.393
-138.385
-138.377
-138.368
-138.358
-138.347
-138.336
-138.323
-138.309
-138.295
-138.279
-165.473
-165.474
-165.474
-165.475
-165.475
-165.476
-165.477
-165.479
-165.481
-165.483
-165.486
-165.49
-165.494
-165.499
-165.506
-165.513
-165.522
-165.532
-165.544
-165.557
-165.572
-165.59
-165.609
-165.631
-165.655
-165.685
-165.716
-165.72
-139.173
-139.175
-139.177
-139.178
-139.18
-139.182
-139.185
-139.188
-139.191
-139.194
-139.198
-139.2
-139.202
-139.203
-139.203
-139.2
-139.196
-139.191
-139.186
-139.18
-139.173
-139.166
-139.157
-139.148
-139.138
-139.125
-139.115
-139.112
-167.429
-167.43
-167.43
-167.431
-167.431
-167.433
-167.434
-167.436
-167.439
-167.442
-167.446
-167.45
-167.456
-167.463
-167.47
-167.48
-167.49
-167.503
-167.517
-167.534
-167.553
-167.575
-167.6
-167.628
-167.659
-167.695
-167.743
-167.785
-169.354
-169.355
-169.355
-169.356
-169.357
-169.358
-169.359
-169.362
-169.364
-169.367
-169.371
-169.376
-169.382
-169.388
-169.396
-169.405
-169.416
-169.428
-169.442
-169.458
-169.476
-169.497
-169.52
-169.547
-169.577
-169.607
-169.644
-169.704
-112.514
-112.515
-112.516
-112.518
-112.521
-112.523
-112.524
-112.522
-112.516
-112.505
-112.49
-112.468
-112.442
-112.409
-112.373
-112.333
-112.292
-112.252
-112.21
-112.166
-112.118
-112.069
-112.019
-111.966
-111.915
-111.853
-111.791
-111.714
-112.376
-112.376
-112.378
-112.381
-112.386
-112.39
-112.394
-112.395
-112.393
-112.388
-112.38
-112.369
-112.355
-112.338
-112.318
-112.296
-112.272
-112.246
-112.22
-112.195
-112.171
-112.149
-112.132
-112.117
-112.109
-112.093
-112.088
-112.064
-111.874
-111.873
-111.873
-111.873
-111.873
-111.874
-111.875
-111.877
-111.88
-111.882
-111.885
-111.887
-111.889
-111.891
-111.893
-111.894
-111.895
-111.895
-111.896
-111.898
-111.901
-111.906
-111.912
-111.923
-111.942
-111.961
-112.002
-112.044
-111.346
-111.345
-111.344
-111.343
-111.343
-111.344
-111.345
-111.347
-111.351
-111.355
-111.361
-111.368
-111.377
-111.387
-111.399
-111.413
-111.429
-111.448
-111.469
-111.494
-111.522
-111.554
-111.589
-111.631
-111.676
-111.725
-111.788
-111.836
-145.887
-145.887
-145.888
-145.889
-145.889
-145.89
-145.891
-145.892
-145.894
-145.897
-145.9
-145.905
-145.911
-145.918
-145.926
-145.936
-145.948
-145.961
-145.976
-145.991
-146.008
-146.025
-146.044
-146.064
-146.084
-146.106
-146.131
-146.162
-159.508
-159.508
-159.508
-159.509
-159.51
-159.511
-159.512
-159.514
-159.517
-159.52
-159.524
-159.529
-159.535
-159.542
-159.55
-159.56
-159.572
-159.586
-159.602
-159.62
-159.641
-159.665
-159.692
-159.722
-159.755
-159.79
-159.829
-159.882
-138.331
-138.331
-138.332
-138.332
-138.333
-138.333
-138.332
-138.33
-138.326
-138.321
-138.313
-138.304
-138.292
-138.279
-138.263
-138.247
-138.229
-138.209
-138.189
-138.167
-138.144
-138.12
-138.094
-138.066
-138.036
-138.005
-137.967
-137.926
-163.512
-163.512
-163.512
-163.513
-163.514
-163.515
-163.516
-163.517
-163.519
-163.522
-163.525
-163.528
-163.533
-163.539
-163.545
-163.553
-163.562
-163.573
-163.585
-163.599
-163.615
-163.632
-163.652
-163.674
-163.698
-163.726
-163.747
-163.767
-149.495
-149.496
-149.496
-149.497
-149.498
-149.499
-149.5
-149.502
-149.504
-149.507
-149.511
-149.516
-149.522
-149.529
-149.538
-149.549
-149.561
-149.576
-149.592
-149.61
-149.63
-149.652
-149.676
-149.701
-149.729
-149.759
-149.794
-149.832
-151.433
-151.433
-151.434
-151.435
-151.436
-151.437
-151.438
-151.44
-151.443
-151.446
-151.451
-151.456
-151.463
-151.471
-151.48
-151.491
-151.504
-151.519
-151.537
-151.556
-151.578
-151.602
-151.628
-151.657
-151.689
-151.722
-151.762
-151.816
-566.759
-567.055
-568.291
-571.233
-575.651
-580.95
-587.038
-593.966
-601.256
-608.71
-615.178
-617.464
-613.761
-605.017
-592.127
-575.254
-556.641
-538.258
-519.745
-501.276
-483.913
-468.335
-454.664
-442.127
-430.411
-419.099
-409.049
-399.589
-486.632
-486.407
-485.782
-484.77
-483.401
-481.732
-479.742
-477.19
-473.752
-469.316
-464.278
-459.421
-455.935
-455.039
-455.621
-454.668
-450.721
-444.465
-436.974
-429.177
-421.877
-415.406
-409.121
-402.809
-396.651
-390.576
-384.77
-378.806
-566.386
-566.375
-566.265
-565.834
-564.865
-563.177
-560.543
-556.543
-550.934
-544.034
-536.377
-528.404
-520.48
-512.735
-505.192
-498.154
-491.596
-485.033
-478.293
-471.296
-463.949
-456.152
-447.977
-439.6
-431.121
-422.668
-414.275
-405.792
-585.545
-585.32
-584.819
-583.594
-581.082
-577.336
-573.07
-568.46
-563.07
-556.627
-549.197
-541.231
-533.092
-524.972
-517.053
-509.132
-500.873
-492.251
-483.696
-475.401
-467.305
-459.318
-451.335
-443.137
-434.805
-426.336
-417.945
-409.371
-583.508
-583.147
-582.304
-580.669
-578.171
-574.88
-570.792
-565.979
-560.728
-554.912
-548.585
-542.011
-535.186
-528.233
-521.189
-513.995
-506.674
-499.153
-491.137
-482.649
-473.914
-465.041
-456.063
-447.09
-438.187
-429.074
-419.844
-410.43
-619.311
-618.799
-617.588
-615.109
-611.173
-605.995
-599.961
-593.333
-586.237
-578.741
-570.912
-562.921
-554.916
-546.845
-538.616
-530.208
-521.595
-512.782
-503.858
-494.862
-485.806
-476.674
-467.456
-458.09
-448.543
-438.83
-429.136
-419.21
-610.539
-610.376
-609.943
-609.075
-607.351
-604.24
-599.534
-593.411
-586.318
-578.683
-570.76
-562.642
-554.328
-545.842
-537.208
-528.437
-519.549
-510.584
-501.501
-492.23
-482.775
-473.166
-463.429
-453.593
-443.722
-433.764
-423.801
-413.719
-621.441
-621.004
-620.015
-618.313
-615.6
-611.466
-605.911
-599.218
-591.759
-583.865
-575.739
-567.467
-559.087
-550.582
-541.918
-533.065
-524.003
-514.744
-505.336
-495.83
-486.254
-476.597
-466.838
-456.955
-446.938
-436.766
-426.614
-416.141
-614.725
-614.561
-613.87
-612.209
-609.27
-604.894
-599.146
-592.344
-584.872
-577.009
-568.916
-560.657
-552.232
-543.632
-534.857
-525.919
-516.829
-507.6
-498.23
-488.71
-479.035
-469.207
-459.248
-449.17
-438.973
-428.679
-418.333
-407.839
-155.445
-155.445
-155.446
-155.446
-155.447
-155.448
-155.45
-155.452
-155.455
-155.458
-155.463
-155.468
-155.475
-155.483
-155.493
-155.504
-155.517
-155.533
-155.55
-155.571
-155.594
-155.619
-155.647
-155.677
-155.711
-155.748
-155.788
-155.831
-171.24
-171.241
-171.241
-171.241
-171.242
-171.243
-171.245
-171.247
-171.249
-171.252
-171.255
-171.259
-171.264
-171.27
-171.277
-171.285
-171.294
-171.305
-171.317
-171.331
-171.347
-171.364
-171.384
-171.405
-171.429
-171.453
-171.477
-171.519
-153.43
-153.431
-153.431
-153.432
-153.433
-153.434
-153.436
-153.438
-153.441
-153.444
-153.449
-153.455
-153.461
-153.47
-153.479
-153.491
-153.504
-153.519
-153.537
-153.557
-153.579
-153.604
-153.631
-153.66
-153.693
-153.727
-153.763
-153.812
-165.803
-165.803
-165.802
-165.802
-165.802
-165.801
-165.801
-165.801
-165.802
-165.802
-165.802
-165.803
-165.804
-165.805
-165.807
-165.808
-165.81
-165.813
-165.816
-165.819
-165.823
-165.827
-165.832
-165.838
-165.845
-165.853
-165.861
-165.869
-164.377
-164.377
-164.376
-164.376
-164.375
-164.375
-164.375
-164.374
-164.374
-164.373
-164.373
-164.372
-164.372
-164.372
-164.371
-164.371
-164.371
-164.371
-164.371
-164.372
-164.372
-164.373
-164.374