/*--------------------------------*- C++ -*----------------------------------*\
| =========                 |                                                 |
| \\      /  F ield         | OpenFOAM: The Open Source CFD Toolbox           |
|  \\    /   O peration     | Version:  2412                                  |
|   \\  /    A nd           | Website:  www.openfoam.com                      |
|    \\/     M anipulation  |                                                 |
\*---------------------------------------------------------------------------*/
FoamFile
{
    version     2.0;
    format      ascii;
    arch        "LSB;label=32;scalar=64";
    class       volVectorField;
    location    "1500";
    object      wallShearStress;
}
// * * * * * * * * * * * * * * * * * * * * * * * * * * * * * * * * * * * * * //

dimensions      [0 2 -2 0 0 0 0];

internalField   uniform (0 0 0);

boundaryField
{
    frontAndBack
    {
        type            empty;
    }
    symmetry
    {
        type            symmetryPlane;
    }
    outlet
    {
        type            calculated;
        value           uniform (0 0 0);
    }
    wall
    {
        type            calculated;
        value           nonuniform List<vector> 
1155
(
(0.0245451 -0.00145929 -2.01988e-23)
(0.0243636 -0.00141716 2.57953e-21)
(0.0242134 -0.00137791 1.00649e-23)
(0.0240635 -0.00133852 2.56797e-21)
(0.0238945 -0.0012986 2.87784e-27)
(0.0237401 -0.00126045 -2.54678e-21)
(0.0235903 -0.00122263 -2.1349e-26)
(0.023445 -0.00118546 -9.95269e-24)
(0.0232736 -0.00114705 -2.55041e-21)
(0.0231184 -0.00111106 2.54529e-21)
(0.0229777 -0.00107506 1.83671e-40)
(-0.0559044 -3.15416e-05 0)
(-0.0531979 7.53109e-05 0)
(-0.0523446 8.9637e-05 0)
(-0.0544883 0.00017233 0)
(-0.0589204 4.34381e-05 0)
(-0.0592362 -7.0557e-05 0)
(-0.0335756 -8.57512e-06 0)
(-0.0363031 1.3138e-05 0)
(-0.0411893 9.05212e-05 0)
(-0.0478027 0.00018757 0)
(-0.0570909 0.000291193 0)
(0.243587 -0.000101121 0)
(0.248835 -0.000110924 0)
(0.253873 -9.38359e-05 0)
(0.25857 -9.80018e-05 0)
(0.263165 -8.25248e-05 0)
(0.267022 -6.59239e-05 0)
(-0.220852 -0.000364731 0)
(-0.203643 -0.000384178 0)
(-0.185871 -0.000371524 0)
(-0.168981 -0.000367864 0)
(-0.152372 -0.000337641 0)
(-0.136775 -0.000329935 0)
(-0.0902464 0.0103925 -1.50244e-19)
(-0.0804354 0.00927548 1.50217e-19)
(-0.0659037 0.00699182 1.41734e-24)
(-0.050814 0.00598107 3.00118e-19)
(-0.0377269 0.00438951 6.02578e-19)
(-0.0274478 0.00331221 -5.88362e-22)
(-0.0239656 0.00305951 2.84678e-19)
(0.0182639 -9.79416e-05 -6.01337e-22)
(0.0182472 -7.5973e-05 5.73972e-42)
(0.0181933 -5.40932e-05 1.5795e-39)
(0.0182087 -3.37597e-05 -7.51708e-23)
(0.0182625 -1.29247e-05 3.75621e-23)
(0.0183957 -3.56091e-06 0)
(0.0185496 -2.95243e-06 0)
(0.0186665 -2.98851e-06 0)
(0.0187972 -2.52214e-06 0)
(0.0188918 -2.57745e-06 0)
(0.01902 -2.21413e-06 0)
(-0.270945 0.000164435 0)
(-0.27834 7.39095e-05 0)
(-0.283253 5.3899e-05 0)
(-0.287171 -1.77597e-05 0)
(-0.288568 -6.50256e-05 0)
(0.0257883 -0.0170337 1.64658e-25)
(0.0268757 -0.0173292 -1.40683e-22)
(0.0279598 -0.0176111 -1.40917e-22)
(0.028995 -0.0178515 9.32687e-26)
(0.029987 -0.0180579 -3.59602e-20)
(0.0309738 -0.0182606 2.35099e-38)
(0.0318606 -0.0184039 4.06521e-25)
(0.0327423 -0.0185158 1.22356e-25)
(0.0336104 -0.0186241 -3.60813e-20)
(0.50943 -0.000151451 0)
(0.521673 -9.45731e-05 0)
(0.0190699 -1.19996e-06 0)
(0.0191452 -1.98221e-06 0)
(0.019221 -1.187e-06 0)
(0.019266 -1.34952e-06 0)
(0.019324 -1.24522e-06 0)
(0.01939 -1.3708e-06 0)
(0.0194162 -4.16738e-07 0)
(0.0194515 -1.5189e-06 0)
(0.0195175 -3.52807e-07 0)
(0.0194894 -1.83787e-07 0)
(0.0195342 -9.10347e-07 0)
(0.462244 0.000381746 0)
(0.449392 0.000381435 0)
(0.436339 0.000395166 0)
(0.530631 0.000193038 0)
(0.524685 0.000210098 0)
(-0.0432708 -0.000149432 0)
(-0.0432518 -0.000135895 0)
(-0.0435433 -0.00013716 0)
(-0.0434301 -0.000111155 0)
(-0.0441318 -7.11941e-05 0)
(0.531769 -9.98172e-05 0)
(0.205329 -0.00110079 0)
(0.536659 -6.03159e-05 0)
(0.540035 -2.1223e-05 0)
(-0.177445 0.000286698 0)
(-0.192033 0.000767601 0)
(-0.222917 0.000733788 0)
(-0.248033 0.000513818 0)
(0.419354 -0.000647947 0)
(0.51572 -0.000113313 0)
(0.148411 0.000234017 0)
(0.526338 -8.47224e-05 0)
(0.461324 -0.000455322 0)
(0.477858 -0.000364895 0)
(0.14882 0.310088 0)
(-0.123328 2.33387 -2.46052e-21)
(-0.243282 -1.88779 -1.83916e-18)
(0.196416 0.261552 -3.57903e-24)
(0.534585 1.30851 -2.38772e-22)
(0.538942 0.824243 1.34927e-21)
(0.784511 1.31057 8.07755e-19)
(1.05472 1.25621 9.16156e-22)
(1.4133 1.59853 5.29854e-18)
(0.501063 -0.000207955 0)
(0.542063 2.57411e-06 0)
(0.490995 -0.000265696 0)
(0.0062679 0.000105534 0)
(-0.00237352 0.000155207 0)
(-0.00976425 0.000183175 0)
(-0.0151952 0.000173796 0)
(-0.0202521 0.000173651 0)
(0.546052 4.95767e-06 0)
(0.331277 -0.000941085 0)
(0.546814 7.17611e-05 0)
(0.393082 -0.000743825 0)
(0.5436 -4.38485e-06 0)
(0.364147 -0.000831457 0)
(0.441956 -0.000538176 0)
(0.542826 0.000127888 0)
(0.162394 -0.000602104 0)
(-0.45417 0.000256003 0)
(-0.465402 0.000252328 0)
(-0.478387 0.000315174 0)
(-0.492762 0.000312551 0)
(-0.507062 0.000343178 0)
(0.4982 -0.00449636 0)
(0.251644 -0.00115877 0)
(0.130916 0.000274242 0)
(0.267329 0.00648583 0)
(0.0660758 0.000215475 0)
(-0.0356815 6.82581e-05 0)
(-0.0244568 0.000188625 0)
(0.000956436 -0.000293806 0)
(0.0114352 -0.000273354 0)
(0.0176395 4.79112e-06 0)
(0.0210766 -0.00019102 0)
(0.0277115 -7.15719e-05 0)
(0.03023 -2.74329e-05 0)
(0.0344752 -0.00515836 -2.4269e-23)
(0.0343055 -0.00507439 -1.24035e-20)
(0.0341445 -0.00499255 2.41828e-23)
(0.0339784 -0.00491105 -1.23152e-20)
(0.0338193 -0.00483101 -2.93874e-39)
(0.033613 -0.0047448 2.38398e-23)
(0.033414 -0.0046622 -1.22086e-20)
(0.0332372 -0.00458303 -2.64486e-38)
(0.0330564 -0.00450453 1.15536e-26)
(0.0328943 -0.00442903 -1.52669e-40)
(0.1726 -0.000155957 0)
(0.179853 -0.000177553 0)
(0.186653 -0.000143599 0)
(0.19252 -0.000149325 0)
(0.199293 -0.000141619 0)
(0.205413 -0.000130272 0)
(-0.415996 -0.000101956 0)
(-0.418065 -3.18066e-05 0)
(-0.422702 0.000134288 0)
(-0.432068 0.000194366 0)
(-0.442427 0.000249237 0)
(-0.19991 -2.22301e-05 0)
(-0.195826 -0.000254388 0)
(-0.18459 -0.000257237 0)
(-0.174384 4.33951e-05 0)
(-0.181729 -2.81148e-05 0)
(-0.240727 -0.000269723 0)
(-0.229984 -0.000212061 0)
(-0.222479 2.23316e-05 0)
(-0.224995 0.000186932 0)
(-0.24533 0.00115672 0)
(0.0150482 -0.0128572 -7.05692e-20)
(0.0162927 -0.0134657 1.38439e-22)
(0.0174596 -0.0139813 1.41696e-19)
(0.0187315 -0.0145476 7.13105e-20)
(0.0198898 -0.0150003 7.13482e-20)
(0.0211322 -0.0154932 -3.58946e-20)
(0.0223228 -0.0159228 3.5966e-20)
(0.0234806 -0.0163121 3.57501e-20)
(0.0246477 -0.0166901 2.80641e-22)
(0.288032 -0.0198433 -3.22318e-22)
(0.283981 -0.0198911 3.22339e-22)
(0.277627 -0.01973 3.25241e-22)
(0.268382 -0.0193473 -3.25293e-22)
(0.256457 -0.0187369 -4.70198e-38)
(0.242085 -0.0178815 -1.6802e-19)
(0.221365 -0.0162702 9.63362e-27)
(-0.047997 0.0101738 1.11566e-21)
(-0.0558634 0.0122312 -1.11533e-21)
(-0.074499 0.016336 -2.85056e-19)
(-0.0918857 0.0197454 2.20928e-21)
(-0.0910422 0.0194764 -5.35605e-22)
(-0.0812937 0.0176552 -9.40395e-38)
(-0.0774776 0.0172676 -2.87448e-19)
(-0.52232 0.000351685 0)
(-0.53728 0.000363085 0)
(-0.552262 0.000362789 0)
(-0.566486 0.000344266 0)
(-0.57917 0.000295583 0)
(0.0217404 -2.46246e-06 0)
(0.0218564 -2.46193e-06 0)
(0.0219725 -2.59284e-06 0)
(0.0220964 -2.66784e-06 0)
(0.0222222 -2.77671e-06 0)
(0.0223537 -2.84544e-06 0)
(0.0224878 -2.96638e-06 0)
(0.0226288 -3.01535e-06 0)
(0.0227675 -3.04682e-06 0)
(0.0229138 -3.20536e-06 0)
(0.0230637 -3.2437e-06 0)
(0.0232174 -3.38445e-06 0)
(0.0233769 -3.46083e-06 0)
(0.0235408 -3.5811e-06 0)
(0.0931242 -0.000181772 0)
(0.0999467 -0.000175551 0)
(0.10861 -0.000163671 0)
(0.115934 -0.000173368 0)
(0.124009 -0.000179504 0)
(0.132499 -0.000176708 0)
(0.0400374 -0.0185333 8.18541e-26)
(0.0404877 -0.0184394 3.55061e-20)
(0.0408973 -0.0183301 3.53544e-20)
(0.0412936 -0.018219 -3.51996e-20)
(0.041673 -0.0181031 3.51091e-20)
(0.0420159 -0.0179749 6.8752e-23)
(0.0423362 -0.0178407 -3.73807e-36)
(0.0426259 -0.0176973 -3.48882e-20)
(0.0428889 -0.0175468 -3.49218e-20)
(0.044571 -0.0140169 3.24618e-20)
(0.0445301 -0.0138364 0)
(0.0444799 -0.0136569 1.16938e-27)
(0.0444333 -0.0134812 6.41533e-20)
(0.0443427 -0.0132958 -4.70198e-38)
(0.0442727 -0.0131206 -1.50543e-36)
(0.0441943 -0.012945 -4.89529e-37)
(0.0440999 -0.0127686 -6.15194e-23)
(0.0440163 -0.0125978 6.15213e-23)
(0.185525 0.000314182 0)
(0.171135 0.000299814 0)
(0.157238 0.000274115 0)
(0.144236 0.000260044 0)
(0.0268112 -6.1928e-06 0)
(0.0271045 -6.43759e-06 0)
(0.0274083 -6.69501e-06 0)
(0.0277231 -6.91507e-06 0)
(0.02805 -7.24371e-06 0)
(0.0283923 -7.51447e-06 0)
(0.028746 -7.81825e-06 0)
(0.0291162 -8.18313e-06 0)
(0.0295041 -8.5841e-06 0)
(0.0299101 -8.97816e-06 0)
(0.0303354 -9.40899e-06 0)
(0.0307796 -9.8317e-06 0)
(0.0312462 -1.03833e-05 0)
(0.0317391 -1.09221e-05 0)
(0.0322567 -1.1521e-05 0)
(0.116909 0.000272551 0)
(0.103362 0.000244437 0)
(0.0908141 0.000232311 0)
(0.0783584 0.000220881 0)
(0.211387 -0.000142983 0)
(0.217535 -0.000145451 0)
(0.223556 -0.000138503 0)
(0.229055 -0.000118178 0)
(0.233982 -0.000110487 0)
(0.238981 -0.000101216 0)
(-0.228051 0.000210916 0)
(-0.238488 0.000183322 0)
(-0.246743 0.000133678 0)
(-0.253681 0.000118005 0)
(-0.261071 0.000156384 0)
(-0.576099 -0.000330203 0)
(-0.560443 -0.00047815 0)
(-0.541046 -0.000483569 0)
(-0.521433 -0.000517063 0)
(-0.500356 -0.000484474 0)
(0.0195247 1.86461e-08 0)
(0.019481 1.07236e-06 0)
(0.0194622 -2.35816e-07 0)
(0.019471 5.44003e-07 0)
(0.0194369 2.91004e-08 0)
(0.0194526 1.63258e-07 0)
(0.0194261 3.69072e-07 0)
(0.0194128 2.79474e-07 0)
(0.0194025 2.20846e-07 0)
(0.0193838 4.25569e-07 0)
(0.0193698 1.44101e-07 0)
(-0.0443397 -5.33809e-05 0)
(-0.0439611 -4.5894e-05 0)
(-0.0425865 -4.71091e-05 0)
(-0.0409128 -3.3541e-05 0)
(-0.0386898 -2.66836e-05 0)
(-0.232219 0.1642 1.50424e-18)
(-0.0504653 0.0353694 1.46536e-18)
(0.0684688 -0.0631832 -3.13004e-18)
(0.345142 -0.316708 1.20071e-18)
(1.2611 -1.08345 -3.58344e-21)
(1.41594 -1.1714 2.90444e-21)
(0.584502 -0.468642 7.15903e-22)
(-0.763091 0.727249 -3.77834e-21)
(-0.889568 0.838796 7.04204e-19)
(0.000144443 0.00130447 0)
(-2.34922e-05 -0.000593004 1.99351e-21)
(9.44005e-05 -0.00146045 -4.84524e-37)
(0.000248718 -0.0020261 0)
(0.000504378 -0.00284064 1.61377e-20)
(0.000702354 -0.00306739 -3.24274e-20)
(0.00101107 -0.00360366 -3.24932e-20)
(0.0012471 -0.00376957 -1.27732e-22)
(0.00157035 -0.00412595 -3.27726e-20)
(0.0395577 -0.00814178 1.39024e-20)
(0.0393795 -0.00801837 5.39815e-23)
(0.0392071 -0.00789782 -5.39828e-23)
(0.039028 -0.00777753 -2.7474e-20)
(0.0388489 -0.00765899 -1.36826e-20)
(0.0386682 -0.00754164 -5.31435e-23)
(0.0384882 -0.00742595 1.36281e-20)
(0.0383102 -0.00731231 -5.87747e-39)
(0.0381347 -0.00720056 -0)
(1.73811 1.61083 5.23733e-18)
(2.0207 1.53812 -6.01853e-36)
(2.06335 1.28552 -2.52687e-18)
(1.51057 0.740468 -3.99254e-19)
(0.285381 0.2164 0)
(-1.44899 -0.378301 -5.66792e-21)
(-1.83261 -0.326537 2.9751e-18)
(-0.465403 0.0758897 -4.85364e-19)
(-0.371089 0.230281 3.18345e-20)
(-0.264978 0.150094 -4.83969e-21)
(0.24015 -0.168071 -7.54551e-19)
(0.351382 -0.220893 -7.52316e-37)
(0.00241251 0.0190036 -7.87327e-21)
(-0.706044 0.499381 1.46937e-39)
(-0.747639 0.52776 -6.33585e-21)
(-0.582456 0.406417 -5.07722e-19)
(-0.0860379 0.0163732 -2.91563e-19)
(-0.0854621 0.0163637 -1.46937e-39)
(-0.0836552 0.0161797 -2.87875e-19)
(-0.0801353 0.0156031 2.88028e-19)
(-0.0750856 0.0147342 2.86201e-19)
(-0.0678278 0.0133479 -2.86806e-19)
(-0.0580045 0.0115631 1.11963e-21)
(-0.0502302 0.0102545 -1.11913e-21)
(0.115543 -0.0380276 -5.90664e-19)
(0.194113 -0.0643507 -7.52316e-37)
(0.305321 -0.100527 6.00331e-19)
(0.363379 -0.117664 6.13286e-19)
(0.313053 -0.10062 -1.50463e-36)
(0.250236 -0.0816036 -1.26267e-18)
(0.22535 -0.0749238 -1.252e-21)
(-0.023484 0.00314056 3.48432e-20)
(-0.0261747 0.00356778 3.67022e-22)
(-0.0322502 0.00448525 -5.88527e-22)
(-0.0412074 0.00581775 5.88399e-22)
(-0.0533929 0.00763069 -1.3163e-24)
(-0.0696735 0.0100863 -5.85092e-22)
(0.0460697 -3.55458e-05 0)
(0.047792 -3.98571e-05 0)
(0.0497252 -4.49592e-05 0)
(0.0519161 -5.1417e-05 0)
(0.0544327 -5.94557e-05 0)
(0.0573537 -6.98338e-05 0)
(0.0608093 -8.3704e-05 0)
(0.0649789 -0.000102744 0)
(0.0701442 -0.000130305 0)
(0.0767718 -0.000172479 0)
(0.0856658 -0.00024242 0)
(0.0983965 -0.000364368 0)
(0.117732 -0.000634238 0)
(0.153191 -0.00125897 0)
(-0.050047 0.00569719 3.14144e-22)
(-0.0935965 0.00946526 -3.13862e-22)
(-0.129655 0.0124386 -1.57947e-19)
(-0.154499 0.0145728 -3.12541e-19)
(-0.165563 0.0154417 1.54921e-19)
(-0.163685 0.015257 0)
(0.0190071 -6.08474e-07 0)
(0.0190393 -7.95338e-07 0)
(0.0190788 -7.72898e-07 0)
(0.019116 -8.34281e-07 0)
(0.0191547 -7.51357e-07 0)
(0.0191904 -6.84979e-07 0)
(0.0192175 -6.62039e-07 0)
(0.0192608 -1.06912e-06 0)
(0.0193097 -8.97015e-07 0)
(0.0193517 -1.03995e-06 0)
(0.0194019 -1.01313e-06 0)
(0.0194515 -1.16027e-06 0)
(0.019505 -9.49221e-07 0)
(0.019545 -1.00524e-06 0)
(0.111829 -0.00421088 -4.56675e-37)
(0.114505 -0.00449204 2.64593e-42)
(0.11831 -0.00480978 5.78929e-39)
(0.123122 -0.00518488 5.87747e-39)
(0.128995 -0.00561756 -7.33495e-20)
(0.136088 -0.00611881 -7.35318e-20)
(0.247861 -0.00117802 2.75506e-40)
(0.240357 -0.00142687 -1.45708e-36)
(0.232863 -0.00166115 6.58961e-43)
(0.224996 -0.00187045 -4.42009e-26)
(0.217183 -0.0020757 -1.81235e-20)
(0.209576 -0.00225852 -7.09549e-23)
(1.12311 -3.16479 -7.05297e-38)
(1.77574 -4.9543 3.95535e-21)
(0.860411 -2.1213 1.24131e-19)
(-0.95278 4.44537 -1.7089e-18)
(-1.30063 6.04732 6.1834e-19)
(-0.593965 2.35193 7.54513e-22)
(0.331513 -2.81177 4.44666e-19)
(0.23323 -2.55558 4.40255e-21)
(0.294177 -0.00105124 0)
(-0.0236252 0.0139422 -2.3652e-20)
(0.0482159 -0.032521 -7.18687e-19)
(0.137623 -0.0777198 -1.46471e-18)
(0.165678 -0.0936692 -1.56961e-24)
(0.181279 -0.101617 -2.17934e-19)
(0.1211 -0.0659039 4.08925e-23)
(-0.131846 0.0897543 -7.37088e-19)
(-0.37853 0.233028 0)
(0.0444164 -0.0158329 -3.37155e-20)
(0.0444801 -0.0156507 -3.35284e-20)
(0.0445373 -0.01547 -6.54935e-23)
(0.0445755 -0.0152868 -3.32819e-20)
(0.0446083 -0.0151054 3.31572e-20)
(0.0446262 -0.014923 -3.30966e-20)
(0.044637 -0.0147416 -6.42715e-23)
(0.0446332 -0.014559 6.42736e-23)
(0.0446246 -0.0143788 -3.26538e-20)
(0.0445996 -0.0141964 -6.37773e-23)
(0.273231 5.14353e-05 0)
(0.271954 4.36352e-05 0)
(0.27021 -7.64909e-05 9.51087e-41)
(0.26608 -0.000354579 1.49393e-37)
(0.260641 -0.000641313 4.46778e-21)
(0.25459 -0.000921374 -8.95311e-21)
(0.204408 -0.0109966 2.94756e-22)
(0.215577 -0.0118643 -7.60902e-20)
(0.226453 -0.0127252 -5.87747e-39)
(0.237072 -0.0136104 3.019e-22)
(0.247484 -0.0144872 -6.05955e-22)
(0.256377 -0.015306 -7.77483e-20)
(0.264937 -0.0161426 -3.08063e-22)
(0.245902 0.000364214 0)
(0.230102 0.000345704 0)
(0.215024 0.000327012 0)
(0.200276 0.000317939 0)
(0.138154 -0.000126485 0)
(0.143239 -0.000107507 0)
(0.147849 -0.000112614 0)
(0.15362 -0.000126891 0)
(0.159798 -0.000146527 0)
(0.166459 -0.000152238 0)
(-0.264694 9.26343e-05 0)
(-0.268148 -0.000117042 0)
(-0.265408 -0.000204684 0)
(-0.259986 -2.10356e-05 0)
(-0.263423 0.000251883 0)
(0.030909 -0.0035842 -5.83866e-21)
(0.0307278 -0.00351653 4.51164e-23)
(0.0305676 -0.00345336 5.73416e-21)
(0.0304194 -0.00339098 -5.43051e-27)
(0.0302567 -0.00332853 -5.72059e-21)
(0.0301193 -0.00326901 -5.70273e-21)
(0.0299633 -0.003208 -5.6851e-21)
(0.029792 -0.00314599 5.66745e-21)
(0.0296341 -0.0030869 1.46937e-39)
(0.0294861 -0.00302884 -2.19709e-23)
(-0.0397064 8.62661e-05 0)
(-0.0423967 7.19745e-05 0)
(0.536141 0.000182449 0)
(0.540098 0.000135612 0)
(0.517674 0.000255454 0)
(0.508596 0.000301713 0)
(0.498215 0.000318164 0)
(0.487388 0.000345628 0)
(0.475203 0.000377989 0)
(0.0439041 -0.0124222 -6.10199e-23)
(0.0438107 -0.0122549 -3.1118e-20)
(0.0436775 -0.0120789 3.09901e-20)
(0.0435616 -0.011912 -3.08639e-20)
(0.0434484 -0.0117472 -3.07969e-20)
(0.0433114 -0.0115795 1.17549e-38)
(0.0431912 -0.0114185 8.60958e-39)
(0.0430491 -0.0112549 -5.92906e-23)
(0.0429138 -0.0110955 3.03538e-20)
(0.0427751 -0.0109378 -3.01703e-20)
(-0.0440383 3.83388e-05 0)
(-0.0445771 1.603e-06 0)
(-0.0450933 7.31135e-06 0)
(-0.045298 -2.0938e-05 0)
(-0.0454157 6.39953e-06 0)
(0.307584 0.000365487 0)
(0.292524 0.000351626 0)
(0.277338 0.000347906 0)
(0.26205 0.000354494 0)
(0.156191 0.00141289 0)
(0.029338 -0.00297146 -5.57224e-21)
(0.0291627 -0.00291108 -6.59995e-26)
(0.028977 -0.00285196 -4.36075e-23)
(0.0288229 -0.00279595 2.17744e-23)
(0.0286585 -0.00273998 5.57151e-21)
(0.0285126 -0.0026857 -1.08553e-23)
(0.0283416 -0.00262996 -1.07923e-23)
(0.0281955 -0.00257755 1.07307e-23)
(0.0280483 -0.00252526 -1.07308e-23)
(0.0279091 -0.00247436 4.63107e-27)
(-0.288375 -0.000149407 0)
(-0.28475 -0.000276343 0)
(-0.276616 -0.000408084 0)
(-0.265879 -0.000315505 0)
(-0.251634 -0.000665269 0)
(-0.229122 -0.000657224 0)
(-0.212076 -0.000160791 0)
(-0.201601 -1.3982e-05 0)
(-0.192407 -0.000114831 0)
(0.0181535 4.15386e-08 0)
(0.0181522 -9.22372e-08 0)
(0.0181624 -1.87684e-07 0)
(0.0181728 -2.44394e-07 0)
(0.0181856 -2.86789e-07 0)
(0.0182025 -3.79232e-07 0)
(0.0182192 -3.41387e-07 0)
(0.0182372 -3.6306e-07 0)
(0.0182508 -2.80606e-07 0)
(0.0182692 -4.29236e-07 0)
(0.0182869 -2.94626e-07 0)
(0.0183031 -4.3213e-07 0)
(0.0183242 -3.93013e-07 0)
(-0.154753 0.000464885 0)
(-0.174242 0.000429728 0)
(-0.191508 0.000319564 0)
(-0.205615 0.000239329 0)
(-0.21736 0.000187746 0)
(0.0662455 -0.0249062 3.96066e-23)
(-0.109898 0.0576769 -4.48272e-39)
(-0.24171 0.119323 0)
(-0.326063 0.160102 -6.74665e-19)
(-0.302013 0.14316 -3.76158e-37)
(-0.025768 -3.15173e-05 -1.89527e-35)
(0.28504 -0.143175 0)
(0.0700685 -0.0294888 -3.35289e-19)
(0.0361954 -0.00606045 0)
(0.0360287 -0.0059663 1.28655e-20)
(0.0358447 -0.00586965 -2.49874e-23)
(0.0356644 -0.00577594 1.27703e-20)
(0.0354992 -0.00568498 2.48958e-23)
(0.0353222 -0.00559384 1.26517e-20)
(0.0351594 -0.00550553 2.47135e-23)
(0.0349878 -0.00541706 2.45333e-23)
(0.0348167 -0.00532949 -2.45339e-23)
(0.0346378 -0.00524231 -1.24931e-20)
(0.037959 -0.00709028 -4.05546e-37)
(0.0377855 -0.00698188 -1.33646e-20)
(0.0376089 -0.00687412 1.17549e-38)
(0.0374355 -0.00676849 1.32618e-20)
(0.0372585 -0.00666339 2.57527e-23)
(0.037082 -0.00655985 1.31346e-20)
(0.0369005 -0.00645649 -2.62458e-20)
(0.0367212 -0.00635531 2.55575e-23)
(0.0365481 -0.00625613 1.29857e-20)
(0.0363745 -0.00615819 2.53649e-23)
(0.077994 -0.0129407 3.04833e-19)
(0.0455589 -0.00728812 3.027e-19)
(0.0113525 -0.00103827 -3.02488e-19)
(-0.0214788 0.00482691 1.17158e-21)
(-0.0492731 0.0097851 -1.16278e-21)
(-0.0690788 0.0132285 -2.94798e-19)
(-0.0808518 0.0153976 -2.93308e-19)
(-0.0365522 -4.53629e-06 0)
(-0.0350491 7.92479e-06 0)
(-0.0334414 1.5027e-05 0)
(-0.0326998 2.49864e-05 0)
(-0.0325684 3.71544e-06 0)
(-0.0550016 -0.000229486 0)
(-0.0457504 -0.000323333 0)
(-0.0334141 -0.000246458 0)
(-0.0210796 -0.000272964 0)
(-0.0075995 -0.000281663 0)
(0.0183651 2.29371e-07 0)
(0.0183571 3.30753e-07 0)
(0.018335 2.21242e-07 0)
(0.0183417 2.32632e-07 0)
(0.0182997 9.89667e-07 0)
(0.0182764 1.12738e-07 0)
(0.0182747 4.65079e-07 0)
(0.0182508 1.17128e-07 0)
(0.0182558 3.3837e-07 0)
(0.0182254 5.03969e-07 0)
(0.0182124 3.78962e-07 0)
(0.0181924 3.89504e-07 0)
(0.0195568 -2.0547e-07 0)
(0.0195566 -2.70703e-07 0)
(0.0195779 -4.25947e-07 0)
(0.0195844 8.71682e-08 0)
(0.0195656 2.39524e-07 0)
(0.0195699 -1.94032e-07 0)
(0.0195732 4.87248e-08 0)
(0.0195743 -2.05452e-07 0)
(0.0195842 -1.60569e-07 0)
(0.0195945 -1.76298e-07 0)
(0.0195902 1.286e-08 0)
(-0.0804707 0.0178711 5.62585e-19)
(-0.0745666 0.0168407 -9.43344e-21)
(-0.072342 0.0163215 6.21874e-20)
(-0.0629738 0.0142483 -2.83667e-19)
(-0.055288 0.0127503 1.10053e-21)
(-0.0489382 0.0115539 3.67342e-40)
(-0.0503247 0.0121299 -4.5696e-25)
(-0.0526169 0.0127894 -4.77545e-38)
(2.82087 -1.73702 -3.74706e-21)
(6.76784 -5.34361 1.92648e-18)
(6.26813 -9.9899 1.11595e-20)
(1.65469 -10.0013 7.2361e-19)
(-1.75817 -8.04373 1.59085e-21)
(-3.39409 -5.15577 -5.8742e-19)
(-3.15538 -2.23414 -2.97303e-19)
(-2.0262 -0.534547 -5.76146e-20)
(-0.502933 -0.0814298 1.29304e-37)
(0.270081 -3.92036e-05 0)
(0.272208 -1.88238e-05 0)
(0.273653 -2.76973e-06 0)
(0.274622 1.2553e-05 0)
(0.274715 2.72116e-05 0)
(0.274416 3.73397e-05 0)
(-0.0913714 0.0133372 -2.97846e-19)
(-0.117373 0.0171695 -2.98326e-19)
(-0.144053 0.0210606 5.92548e-19)
(-0.167609 0.0245017 2.9476e-19)
(-0.183944 0.0268741 0)
(-0.18979 0.0277455 0)
(-0.184979 0.0270638 2.91301e-19)
(-0.309344 -0.000298742 0)
(-0.297483 -0.000429829 0)
(-0.283342 -0.000493908 0)
(-0.270152 -0.000852268 0)
(-0.253761 -0.000336269 0)
(-0.182712 -8.1643e-05 0)
(-0.178184 2.7931e-05 0)
(-0.180449 0.00015566 0)
(-0.186594 0.000145692 0)
(-0.195738 0.000248454 0)
(0.041286 -0.00946409 1.4534e-20)
(0.0411111 -0.00932254 -1.44749e-20)
(0.0409458 -0.00918545 2.87193e-20)
(0.0407809 -0.00905034 0)
(0.0405957 -0.00891219 -1.42427e-20)
(0.0404174 -0.0087784 0)
(0.0402449 -0.00864714 1.41277e-20)
(0.0400668 -0.00851717 -1.40161e-20)
(0.0399025 -0.00839125 1.39048e-20)
(0.0397257 -0.00826482 1.40128e-20)
(0.018648 -6.63773e-07 0)
(0.0186856 -7.47347e-07 0)
(0.0187181 -7.29373e-07 0)
(0.0187531 -6.57723e-07 0)
(0.0187781 -5.28676e-07 0)
(0.0188053 -6.15383e-07 0)
(0.018833 -4.60799e-07 0)
(0.0188509 -4.00417e-07 0)
(0.018873 -3.64847e-07 0)
(0.0188881 -4.50507e-07 0)
(0.0189204 -6.96236e-07 0)
(0.0189492 -5.2854e-07 0)
(0.0189759 -6.46315e-07 0)
(-0.20593 -0.0672741 2.24454e-20)
(-0.0542717 -0.0315809 -1.0618e-22)
(-0.027079 -0.0230072 2.46525e-20)
(-0.00579682 -0.00877132 -8.33308e-24)
(-0.106812 0.0116354 -3.27291e-25)
(-0.113625 0.0124399 1.50745e-19)
(-0.114106 0.0121895 1.50593e-19)
(-0.0994088 0.010725 -3.00959e-19)
(-0.09923 0.0112832 -1.17694e-21)
(-0.101251 0.0115988 -1.49902e-19)
(-0.0966702 0.0111004 2.97868e-36)
(-0.284817 0.00126951 0)
(-0.329826 0.00114409 0)
(-0.369335 0.000705926 0)
(-0.396635 0.000357648 0)
(-0.411829 2.01954e-05 0)
(0.0191391 5.79199e-07 0)
(0.0191103 4.07366e-07 0)
(0.019094 4.74103e-07 0)
(0.0190749 2.00758e-07 0)
(0.0190683 1.9457e-07 0)
(0.0190613 1.54776e-07 0)
(0.0190444 3.1654e-07 0)
(0.019041 2.38716e-07 0)
(0.0190043 1.12154e-06 0)
(0.0189614 5.40066e-07 0)
(0.0189423 6.93348e-07 0)
(0.0189124 3.95129e-07 0)
(0.272614 -0.016938 3.08014e-22)
(0.279741 -0.0177132 -4.70198e-38)
(0.285188 -0.0183666 -3.20639e-19)
(0.288907 -0.0189505 -1.61882e-19)
(0.291512 -0.0194401 -3.18656e-22)
(0.290975 -0.0197004 3.18655e-22)
(0.159767 -0.00312438 3.64357e-20)
(0.153558 -0.00320366 -7.11249e-23)
(0.147336 -0.00326018 7.28943e-20)
(0.141402 -0.00330981 1.17549e-38)
(0.135631 -0.00334491 -3.63818e-20)
(0.130016 -0.00337641 -1.46937e-39)
(0.365207 0.000450304 0)
(0.35115 0.00037707 0)
(0.337243 0.000385757 0)
(0.32274 0.00038051 0)
(0.036808 -0.000132631 0)
(0.0438861 -0.0001097 0)
(0.0467414 -0.000152533 0)
(0.0621154 -0.000407376 0)
(0.0773404 -0.000258044 0)
(0.0828833 -0.000161796 0)
(0.0539507 0.000200874 0)
(0.0425414 0.00016445 0)
(0.0328086 0.000135703 0)
(0.0235333 0.000118576 0)
(0.0149918 9.20593e-05 0)
(-0.958451 0.922454 -3.41322e-19)
(-0.669134 0.644745 1.86021e-18)
(-0.449871 0.484647 1.50463e-36)
(-0.619579 0.711122 -8.09825e-26)
(-0.784821 0.850311 -3.20911e-25)
(-0.205828 0.130926 2.10026e-18)
(1.26732 -1.55734 -2.38784e-18)
(0.346475 -0.394159 7.32673e-19)
(0.0181831 1.32051e-07 0)
(0.0181793 1.12788e-07 0)
(0.0181775 -6.98524e-08 0)
(0.0181835 -9.81113e-08 0)
(0.018188 -2.36583e-08 0)
(0.0181844 5.64434e-08 0)
(0.0181889 -2.18788e-07 0)
(0.0182001 6.81806e-08 0)
(0.0181833 2.61147e-07 0)
(0.0181832 -2.98429e-08 0)
(0.0181827 1.09896e-07 0)
(0.0181796 -3.42649e-08 0)
(0.0181834 1.95099e-08 0)
(-0.609315 0.881094 4.62827e-21)
(-0.468947 0.659179 8.46198e-20)
(0.0528399 -0.0772851 -1.24659e-18)
(-0.180859 0.346084 -7.0407e-23)
(-0.287281 0.506625 -3.13323e-22)
(-0.0691907 0.0897043 -1.77691e-22)
(0.269042 -0.634309 -1.3203e-18)
(0.587297 -1.50276 -4.28063e-22)
(0.215678 -0.00469124 0)
(0.0327101 -0.00435141 -9.56639e-38)
(0.0325355 -0.0042764 2.33404e-23)
(0.0323698 -0.00420332 1.1936e-20)
(0.0322073 -0.0041314 1.18727e-20)
(0.0320514 -0.00406125 2.3118e-23)
(0.0319018 -0.0039923 1.18166e-20)
(0.0317278 -0.00392078 -1.18003e-20)
(0.031553 -0.00385073 -1.26513e-36)
(0.0313947 -0.00378327 -5.87279e-21)
(0.0312253 -0.00371511 2.28146e-23)
(0.0310553 -0.00364804 2.26667e-23)
(-0.0823944 0.0219273 5.6336e-19)
(-0.0923772 0.0246594 -5.63726e-19)
(-0.0976863 0.0263306 7.02865e-20)
(-0.0995855 0.0270559 -7.26336e-19)
(-0.0977294 0.0266081 9.40395e-38)
(-0.0934897 0.025777 -5.64722e-19)
(-0.0905174 0.0252005 1.13171e-18)
(-0.085774 0.0241215 1.13464e-18)
(0.422531 0.000409352 0)
(0.40824 0.000413981 0)
(0.393883 0.000424721 0)
(0.378966 0.000574269 0)
(0.203946 -0.015239 2.99101e-22)
(0.177929 -0.0135344 -1.6768e-19)
(0.149745 -0.0114701 -3.349e-19)
(0.117171 -0.00889377 2.06704e-25)
(0.0800036 -0.00588409 3.24846e-22)
(0.0392046 -0.00219885 4.70198e-38)
(-0.00461074 0.00186488 -1.63411e-19)
(-0.0685874 0.000340441 0)
(-0.082553 0.000410474 0)
(-0.0987738 0.000441066 0)
(-0.116257 0.000477841 0)
(-0.135637 0.000488084 0)
(0.0181809 9.83461e-09 0)
(0.018182 5.85202e-08 0)
(0.0181788 -1.25869e-07 0)
(0.0181951 -7.97071e-08 0)
(0.0181785 3.52374e-07 0)
(0.01818 -2.35131e-07 0)
(0.018188 6.4581e-08 0)
(0.0181865 -1.04554e-07 0)
(0.0181884 2.57455e-07 0)
(0.0181739 2.12887e-07 0)
(0.0181646 3.80683e-07 0)
(0.0181502 1.07923e-07 0)
(0.0426362 -0.0107825 -2.99875e-20)
(0.042493 -0.0106287 -2.41998e-25)
(0.0423549 -0.0104783 2.97418e-20)
(0.0422052 -0.0103277 1.4839e-20)
(0.0420618 -0.0101806 0)
(0.041907 -0.0100331 -1.47172e-20)
(0.0417585 -0.00988938 -1.46571e-20)
(0.0415982 -0.00974472 -1.45399e-20)
(0.041444 -0.00960419 -1.45941e-20)
(0.0328043 -1.21996e-05 0)
(0.0333845 -1.29366e-05 0)
(0.0339991 -1.37209e-05 0)
(0.0346525 -1.46186e-05 0)
(0.0353481 -1.55581e-05 0)
(0.0360888 -1.66194e-05 0)
(0.036881 -1.7786e-05 0)
(0.0377296 -1.9117e-05 0)
(0.0386432 -2.0607e-05 0)
(0.0396286 -2.2296e-05 0)
(0.0406972 -2.42284e-05 0)
(0.0418588 -2.64083e-05 0)
(0.0431279 -2.89943e-05 0)
(0.0445257 -3.20146e-05 0)
(0.0204442 -1.51921e-06 0)
(0.0205249 -1.74705e-06 0)
(0.0206011 -1.5155e-06 0)
(0.0206723 -1.69837e-06 0)
(0.020758 -1.79185e-06 0)
(0.0208428 -1.85768e-06 0)
(0.0209296 -1.83877e-06 0)
(0.0210189 -2.02656e-06 0)
(0.021117 -2.06891e-06 0)
(0.0212136 -2.13473e-06 0)
(0.0213155 -2.18428e-06 0)
(0.0214182 -2.2799e-06 0)
(0.0215277 -2.28993e-06 0)
(0.0216299 -2.23833e-06 0)
(0.0183445 -4.57333e-07 0)
(0.0183629 -3.10515e-07 0)
(0.0183793 -4.46788e-07 0)
(0.0184027 -4.41566e-07 0)
(0.0184253 -5.71802e-07 0)
(0.0184548 -6.26833e-07 0)
(0.0184866 -7.3363e-07 0)
(0.0185198 -4.91275e-07 0)
(0.0185329 -4.09249e-07 0)
(0.0185613 -5.14556e-07 0)
(0.0185754 -2.26764e-07 0)
(0.0185923 -5.61063e-07 0)
(0.0186241 -5.44851e-07 0)
(0.147766 -0.0247505 -5.85923e-22)
(0.162554 -0.0271643 -3.25197e-24)
(0.169678 -0.0283954 3.02909e-19)
(0.165523 -0.0277012 -1.88079e-37)
(0.152985 -0.025682 -3.04341e-19)
(0.13348 -0.0222421 -3.99674e-20)
(0.110094 -0.0182286 -5.59427e-19)
(0.0196035 -2.13637e-07 0)
(0.0195905 1.24821e-07 0)
(0.0196117 -3.79954e-07 0)
(0.0195866 9.78514e-07 0)
(0.019565 -3.98719e-07 0)
(0.0195842 5.73282e-07 0)
(0.0195395 1.79959e-07 0)
(0.0195558 1.45155e-07 0)
(0.0195322 1.96089e-07 0)
(0.0195365 2.2289e-07 0)
(0.0195082 2.7543e-07 0)
(0.0186843 4.00079e-07 0)
(0.0186803 2.82295e-07 0)
(0.0186529 5.71494e-07 0)
(0.0186395 1.74156e-07 0)
(0.0186277 4.22548e-07 0)
(0.0186127 6.32748e-09 0)
(0.0186201 5.30492e-08 0)
(0.0186104 3.01382e-08 0)
(0.0186147 1.96863e-07 0)
(0.0185879 4.94129e-07 0)
(0.0185766 2.98451e-07 0)
(0.0185505 7.09815e-07 0)
(0.0185264 2.98704e-07 0)
(-0.312397 -0.000775725 0)
(-0.293588 -0.000415406 0)
(-0.274938 -0.000460761 0)
(-0.256127 -0.00043626 0)
(-0.238261 -0.000395602 0)
(-0.121445 -0.000305557 0)
(-0.107118 -0.000297028 0)
(-0.0923908 -0.000311483 0)
(-0.0775193 -0.000303859 0)
(-0.0639832 -0.000218807 0)
(0.0260657 -0.00188942 -1.03342e-23)
(0.0259371 -0.00184559 2.64902e-26)
(0.0257619 -0.00179837 -1.05314e-20)
(0.0255925 -0.00175363 -5.26819e-21)
(0.0254422 -0.00171002 2.52072e-26)
(0.0252837 -0.00166652 1.02316e-23)
(0.0251152 -0.00162253 -1.01823e-23)
(0.0249658 -0.0015814 1.01825e-23)
(0.0248277 -0.00154022 -2.18916e-40)
(0.0246775 -0.00149952 1.0111e-23)
(0.0185152 5.10454e-07 0)
(0.0184903 2.48186e-07 0)
(0.0184892 1.67861e-07 0)
(0.018476 2.86068e-07 0)
(0.0184612 3.51379e-07 0)
(0.0184471 1.7318e-07 0)
(0.0184442 3.19271e-07 0)
(0.0184138 6.09267e-07 0)
(0.0183996 1.90505e-07 0)
(0.0183903 3.3588e-07 0)
(0.0183781 6.0924e-08 0)
(0.0183797 1.77204e-07 0)
(0.0388271 -0.0144856 -6.2078e-19)
(-0.0226655 0.0133487 2.78357e-35)
(-0.181136 0.0720344 -6.455e-38)
(-0.0535164 0.0122956 5.6046e-26)
(0.0878657 -0.0460085 4.22117e-19)
(0.55669 -0.226713 -6.31596e-19)
(0.388411 -0.147836 2.73595e-23)
(0.179062 -0.0685368 -1.20723e-21)
(-0.16806 0.0245196 2.49205e-35)
(-0.136634 0.0190055 2.09339e-20)
(-0.100998 0.0130185 0)
(-0.0495884 0.00650493 2.92471e-19)
(-0.00439239 -0.000627325 -5.71355e-22)
(0.0434831 -0.00816625 -2.94221e-19)
(0.0866276 -0.0149024 2.95713e-19)
(0.119922 -0.0202229 9.40395e-38)
(0.143937 -0.00666206 7.37439e-20)
(0.152836 -0.00728149 1.44781e-22)
(0.162412 -0.00793695 -7.44031e-20)
(0.172511 -0.00865272 -3.18559e-36)
(0.183124 -0.00940516 7.48988e-20)
(0.193755 -0.0101819 -2.95074e-22)
(0.0277691 -0.00242312 -5.82604e-37)
(0.0275839 -0.0023689 -5.42967e-21)
(0.0274351 -0.00231947 -1.06112e-23)
(0.0272879 -0.00226956 -1.0553e-23)
(0.0271374 -0.00222037 2.10778e-23)
(0.0269707 -0.0021696 -2.83643e-26)
(0.0267944 -0.00212001 -5.388e-21)
(0.0266501 -0.00207284 1.04687e-23)
(0.02649 -0.00202521 -8.78177e-40)
(0.0263498 -0.00197945 -1.03872e-23)
(0.0262029 -0.00193383 5.32182e-21)
(0.0344188 -0.0187005 1.40793e-22)
(0.0351877 -0.018754 -7.21992e-20)
(0.0359165 -0.0187853 -3.61328e-20)
(0.0366059 -0.0187961 -3.58104e-20)
(0.0372713 -0.0187946 -2.35099e-38)
(0.0378838 -0.0187675 -1.39916e-22)