/*--------------------------------*- C++ -*----------------------------------*\
| =========                 |                                                 |
| \\      /  F ield         | OpenFOAM: The Open Source CFD Toolbox           |
|  \\    /   O peration     | Version:  2412                                  |
|   \\  /    A nd           | Website:  www.openfoam.com                      |
|    \\/     M anipulation  |                                                 |
\*---------------------------------------------------------------------------*/
FoamFile
{
    version     2.0;
    format      ascii;
    arch        "LSB;label=32;scalar=64";
    class       volScalarField;
    location    "1000";
    object      p;
}
// * * * * * * * * * * * * * * * * * * * * * * * * * * * * * * * * * * * * * //

dimensions      [0 2 -2 0 0 0 0];

internalField   nonuniform List<scalar> 
360650
(
-4.50087
-4.50087
-4.50088
-4.50089
-4.50089
-4.50091
-4.50092
-4.50095
-4.50098
-4.50102
-4.50107
-4.50114
-4.50122
-4.50133
-4.50145
-4.50161
-4.50179
-4.50201
-4.50227
-4.50257
-4.50292
-4.50332
-4.50378
-4.50431
-4.5049
-4.50557
-4.50632
-4.50719
-4.48858
-4.48858
-4.48859
-4.4886
-4.4886
-4.48862
-4.48863
-4.48866
-4.48868
-4.48872
-4.48877
-4.48884
-4.48891
-4.48901
-4.48913
-4.48927
-4.48944
-4.48964
-4.48988
-4.49016
-4.49047
-4.49084
-4.49125
-4.49172
-4.49224
-4.49281
-4.49345
-4.49408
-4.47643
-4.47644
-4.47644
-4.47645
-4.47646
-4.47647
-4.47649
-4.47651
-4.47654
-4.47658
-4.47663
-4.47669
-4.47677
-4.47687
-4.47699
-4.47713
-4.47731
-4.47751
-4.47775
-4.47803
-4.47836
-4.47873
-4.47915
-4.47962
-4.48015
-4.48074
-4.48138
-4.48207
-4.46439
-4.46439
-4.4644
-4.4644
-4.46441
-4.46442
-4.46444
-4.46446
-4.46449
-4.46453
-4.46458
-4.46465
-4.46473
-4.46482
-4.46495
-4.46509
-4.46527
-4.46547
-4.46572
-4.46601
-4.46634
-4.46672
-4.46716
-4.46765
-4.46821
-4.46884
-4.46953
-4.47031
-4.45245
-4.45245
-4.45246
-4.45246
-4.45247
-4.45248
-4.4525
-4.45252
-4.45255
-4.45259
-4.45264
-4.4527
-4.45277
-4.45287
-4.45298
-4.45312
-4.45329
-4.45349
-4.45372
-4.45399
-4.45431
-4.45467
-4.45508
-4.45554
-4.45606
-4.45663
-4.45727
-4.45795
-4.44064
-4.44065
-4.44065
-4.44066
-4.44067
-4.44068
-4.44069
-4.44072
-4.44075
-4.44078
-4.44083
-4.44089
-4.44097
-4.44107
-4.44119
-4.44133
-4.4415
-4.4417
-4.44194
-4.44222
-4.44254
-4.4429
-4.44332
-4.44379
-4.44432
-4.4449
-4.44553
-4.44622
-4.42893
-4.42893
-4.42893
-4.42894
-4.42895
-4.42896
-4.42898
-4.429
-4.42903
-4.42907
-4.42912
-4.42918
-4.42927
-4.42937
-4.42949
-4.42964
-4.42982
-4.43003
-4.43028
-4.43058
-4.43092
-4.43132
-4.43177
-4.43229
-4.43287
-4.43353
-4.43426
-4.43509
-4.41728
-4.41728
-4.41729
-4.41729
-4.4173
-4.41731
-4.41733
-4.41735
-4.41738
-4.41742
-4.41747
-4.41753
-4.41761
-4.41771
-4.41783
-4.41798
-4.41815
-4.41836
-4.41861
-4.41889
-4.41923
-4.41961
-4.42006
-4.42056
-4.42113
-4.42176
-4.42249
-4.42325
-4.40574
-4.40575
-4.40575
-4.40576
-4.40577
-4.40578
-4.40579
-4.40581
-4.40584
-4.40588
-4.40593
-4.40599
-4.40607
-4.40616
-4.40627
-4.40641
-4.40658
-4.40678
-4.40701
-4.40728
-4.40759
-4.40795
-4.40836
-4.40882
-4.40934
-4.40991
-4.41054
-4.41119
-4.39433
-4.39433
-4.39434
-4.39434
-4.39435
-4.39436
-4.39438
-4.3944
-4.39443
-4.39447
-4.39452
-4.39458
-4.39465
-4.39475
-4.39486
-4.395
-4.39517
-4.39537
-4.39561
-4.39588
-4.3962
-4.39656
-4.39698
-4.39745
-4.39798
-4.39857
-4.39921
-4.39994
-4.38301
-4.38301
-4.38302
-4.38302
-4.38303
-4.38304
-4.38306
-4.38308
-4.38311
-4.38314
-4.38319
-4.38325
-4.38333
-4.38342
-4.38354
-4.38368
-4.38385
-4.38405
-4.38428
-4.38456
-4.38488
-4.38525
-4.38567
-4.38615
-4.38669
-4.3873
-4.38798
-4.38876
-166.385
-166.385
-166.385
-166.385
-166.385
-166.386
-166.388
-166.39
-166.392
-166.396
-166.4
-166.405
-166.41
-166.417
-166.425
-166.434
-166.445
-166.457
-166.47
-166.486
-166.503
-166.523
-166.545
-166.57
-166.597
-166.627
-166.66
-166.695
-166.53
-166.53
-166.53
-166.53
-166.53
-166.531
-166.533
-166.535
-166.537
-166.541
-166.545
-166.55
-166.556
-166.562
-166.57
-166.579
-166.59
-166.602
-166.615
-166.631
-166.648
-166.667
-166.689
-166.713
-166.74
-166.769
-166.801
-166.836
-166.6
-166.6
-166.6
-166.6
-166.6
-166.601
-166.603
-166.605
-166.607
-166.611
-166.615
-166.62
-166.625
-166.632
-166.64
-166.648
-166.659
-166.67
-166.683
-166.698
-166.715
-166.733
-166.754
-166.777
-166.802
-166.829
-166.86
-166.889
-166.602
-166.601
-166.601
-166.601
-166.601
-166.602
-166.604
-166.606
-166.609
-166.612
-166.617
-166.622
-166.628
-166.635
-166.643
-166.653
-166.663
-166.675
-166.689
-166.704
-166.721
-166.74
-166.762
-166.786
-166.813
-166.843
-166.877
-166.912
-166.521
-166.521
-166.52
-166.52
-166.521
-166.521
-166.522
-166.524
-166.526
-166.529
-166.532
-166.537
-166.543
-166.55
-166.559
-166.569
-166.581
-166.594
-166.61
-166.627
-166.646
-166.666
-166.688
-166.712
-166.738
-166.766
-166.796
-166.829
-166.371
-166.37
-166.37
-166.37
-166.37
-166.37
-166.371
-166.372
-166.374
-166.377
-166.38
-166.384
-166.389
-166.395
-166.402
-166.41
-166.421
-166.433
-166.447
-166.463
-166.481
-166.501
-166.523
-166.547
-166.573
-166.601
-166.631
-166.662
-115.413
-115.413
-115.413
-115.413
-115.413
-115.413
-115.413
-115.413
-115.413
-115.413
-115.413
-115.413
-115.412
-115.412
-115.412
-115.412
-115.412
-115.411
-115.411
-115.411
-115.41
-115.41
-115.41
-115.409
-115.408
-115.408
-115.407
-115.406
-115.361
-115.361
-115.361
-115.361
-115.361
-115.361
-115.361
-115.361
-115.361
-115.361
-115.361
-115.361
-115.36
-115.36
-115.36
-115.36
-115.36
-115.36
-115.359
-115.359
-115.359
-115.358
-115.358
-115.357
-115.357
-115.356
-115.356
-115.355
-115.312
-115.312
-115.312
-115.312
-115.312
-115.312
-115.312
-115.312
-115.312
-115.312
-115.312
-115.312
-115.312
-115.311
-115.311
-115.311
-115.311
-115.311
-115.311
-115.311
-115.311
-115.31
-115.31
-115.31
-115.309
-115.309
-115.308
-115.308
-115.265
-115.265
-115.265
-115.265
-115.265
-115.265
-115.265
-115.265
-115.265
-115.265
-115.265
-115.265
-115.265
-115.265
-115.265
-115.265
-115.265
-115.265
-115.265
-115.265
-115.265
-115.265
-115.265
-115.265
-115.266
-115.266
-115.266
-115.268
-115.221
-115.221
-115.221
-115.221
-115.221
-115.221
-115.221
-115.22
-115.22
-115.22
-115.22
-115.22
-115.22
-115.22
-115.22
-115.22
-115.219
-115.219
-115.219
-115.218
-115.218
-115.217
-115.217
-115.216
-115.215
-115.214
-115.213
-115.212
-147.721
-147.721
-147.721
-147.721
-147.721
-147.721
-147.721
-147.72
-147.72
-147.719
-147.718
-147.717
-147.715
-147.713
-147.711
-147.708
-147.704
-147.7
-147.695
-147.69
-147.684
-147.678
-147.67
-147.662
-147.653
-147.643
-147.631
-147.62
-147.627
-147.628
-147.628
-147.628
-147.627
-147.627
-147.627
-147.627
-147.626
-147.625
-147.624
-147.623
-147.622
-147.62
-147.618
-147.615
-147.612
-147.609
-147.605
-147.6
-147.594
-147.589
-147.582
-147.574
-147.566
-147.557
-147.547
-147.538
-147.556
-147.556
-147.556
-147.556
-147.556
-147.556
-147.556
-147.555
-147.555
-147.554
-147.553
-147.552
-147.551
-147.549
-147.547
-147.544
-147.541
-147.538
-147.534
-147.53
-147.525
-147.519
-147.513
-147.506
-147.498
-147.49
-147.481
-147.472
-147.505
-147.505
-147.505
-147.505
-147.505
-147.505
-147.504
-147.504
-147.504
-147.503
-147.502
-147.501
-147.499
-147.498
-147.496
-147.493
-147.49
-147.487
-147.483
-147.478
-147.473
-147.467
-147.46
-147.453
-147.445
-147.436
-147.426
-147.415
-147.477
-147.477
-147.477
-147.477
-147.477
-147.476
-147.476
-147.476
-147.475
-147.474
-147.473
-147.472
-147.471
-147.469
-147.467
-147.464
-147.461
-147.458
-147.454
-147.449
-147.443
-147.437
-147.43
-147.423
-147.414
-147.405
-147.394
-147.384
-147.467
-147.467
-147.467
-147.467
-147.467
-147.467
-147.466
-147.466
-147.465
-147.464
-147.463
-147.462
-147.461
-147.459
-147.457
-147.454
-147.45
-147.446
-147.442
-147.437
-147.432
-147.426
-147.42
-147.413
-147.405
-147.397
-147.387
-147.378
-159.757
-159.758
-159.758
-159.758
-159.759
-159.76
-159.761
-159.763
-159.765
-159.768
-159.771
-159.775
-159.78
-159.786
-159.793
-159.801
-159.81
-159.821
-159.833
-159.846
-159.862
-159.879
-159.899
-159.92
-159.944
-159.971
-159.999
-160.033
-160.687
-160.687
-160.688
-160.688
-160.689
-160.69
-160.691
-160.693
-160.695
-160.698
-160.701
-160.705
-160.71
-160.716
-160.722
-160.73
-160.739
-160.75
-160.762
-160.775
-160.791
-160.808
-160.828
-160.849
-160.873
-160.9
-160.928
-160.96
-161.569
-161.569
-161.569
-161.569
-161.57
-161.571
-161.572
-161.574
-161.577
-161.579
-161.583
-161.587
-161.592
-161.598
-161.605
-161.613
-161.622
-161.633
-161.645
-161.658
-161.674
-161.691
-161.71
-161.731
-161.754
-161.78
-161.807
-161.835
-162.391
-162.391
-162.391
-162.391
-162.392
-162.393
-162.394
-162.396
-162.399
-162.402
-162.405
-162.41
-162.415
-162.421
-162.428
-162.437
-162.446
-162.457
-162.47
-162.484
-162.499
-162.517
-162.537
-162.559
-162.583
-162.609
-162.638
-162.669
-163.148
-163.148
-163.148
-163.148
-163.149
-163.15
-163.151
-163.153
-163.156
-163.159
-163.163
-163.167
-163.173
-163.179
-163.186
-163.195
-163.205
-163.216
-163.229
-163.244
-163.26
-163.279
-163.3
-163.323
-163.349
-163.377
-163.408
-163.442
-163.839
-163.838
-163.839
-163.839
-163.84
-163.841
-163.842
-163.844
-163.847
-163.85
-163.854
-163.859
-163.864
-163.871
-163.879
-163.887
-163.898
-163.909
-163.923
-163.938
-163.955
-163.975
-163.996
-164.02
-164.047
-164.076
-164.108
-164.145
-159.245
-159.245
-159.245
-159.245
-159.244
-159.243
-159.242
-159.241
-159.239
-159.238
-159.237
-159.236
-159.235
-159.234
-159.234
-159.235
-159.236
-159.239
-159.243
-159.245
-159.245
-159.249
-159.256
-159.257
-159.237
-159.2
-159.147
-159.095
-158.877
-158.877
-158.878
-158.878
-158.877
-158.877
-158.877
-158.877
-158.877
-158.877
-158.878
-158.878
-158.879
-158.881
-158.882
-158.884
-158.886
-158.889
-158.892
-158.896
-158.902
-158.907
-158.905
-158.901
-158.9
-158.9
-158.869
-158.812
-158.55
-158.55
-158.55
-158.55
-158.55
-158.55
-158.549
-158.549
-158.549
-158.548
-158.547
-158.546
-158.545
-158.543
-158.54
-158.536
-158.531
-158.525
-158.518
-158.51
-158.501
-158.493
-158.487
-158.482
-158.465
-158.433
-158.385
-158.348
-158.333
-158.334
-158.335
-158.336
-158.336
-158.335
-158.334
-158.332
-158.329
-158.325
-158.319
-158.313
-158.305
-158.295
-158.282
-158.266
-158.247
-158.223
-158.194
-158.159
-158.118
-158.071
-158.022
-157.975
-157.943
-157.929
-157.912
-157.88
-158.338
-158.339
-158.341
-158.341
-158.341
-158.339
-158.335
-158.329
-158.32
-158.309
-158.297
-158.282
-158.266
-158.246
-158.223
-158.194
-158.16
-158.119
-158.071
-158.016
-157.954
-157.889
-157.823
-157.759
-157.692
-157.62
-157.527
-157.434
-158.444
-158.444
-158.444
-158.442
-158.439
-158.433
-158.425
-158.414
-158.4
-158.384
-158.364
-158.342
-158.316
-158.287
-158.254
-158.218
-158.177
-158.133
-158.086
-158.034
-157.978
-157.919
-157.858
-157.792
-157.718
-157.641
-157.561
-157.488
-158.662
-158.662
-158.662
-158.662
-158.661
-158.659
-158.656
-158.652
-158.647
-158.64
-158.631
-158.62
-158.607
-158.592
-158.573
-158.551
-158.526
-158.496
-158.461
-158.422
-158.377
-158.328
-158.273
-158.213
-158.148
-158.081
-158.015
-157.954
-4.07079
-4.07079
-4.07079
-4.07079
-4.0708
-4.0708
-4.07081
-4.07082
-4.07083
-4.07085
-4.07088
-4.07092
-4.07096
-4.07102
-4.07108
-4.07117
-4.07127
-4.07138
-4.07152
-4.07169
-4.07188
-4.0721
-4.07236
-4.07264
-4.07297
-4.07333
-4.07371
-4.07418
-4.06422
-4.06422
-4.06422
-4.06422
-4.06422
-4.06423
-4.06423
-4.06424
-4.06426
-4.06428
-4.0643
-4.06433
-4.06437
-4.06442
-4.06449
-4.06456
-4.06465
-4.06476
-4.06489
-4.06505
-4.06522
-4.06543
-4.06567
-4.06594
-4.06626
-4.06661
-4.06701
-4.06754
-4.05788
-4.05788
-4.05788
-4.05788
-4.05788
-4.05788
-4.05789
-4.0579
-4.05791
-4.05792
-4.05794
-4.05796
-4.05799
-4.05803
-4.05808
-4.05814
-4.0582
-4.05828
-4.05838
-4.05849
-4.05861
-4.05875
-4.05891
-4.05909
-4.05929
-4.0595
-4.05974
-4.05994
-4.05171
-4.05171
-4.05171
-4.05171
-4.05171
-4.05171
-4.05171
-4.05172
-4.05173
-4.05174
-4.05175
-4.05178
-4.0518
-4.05184
-4.05188
-4.05194
-4.052
-4.05208
-4.05217
-4.05227
-4.0524
-4.05254
-4.0527
-4.05288
-4.05309
-4.05332
-4.05357
-4.05384
-4.04566
-4.04566
-4.04565
-4.04565
-4.04565
-4.04565
-4.04564
-4.04565
-4.04565
-4.04566
-4.04567
-4.04568
-4.0457
-4.04573
-4.04576
-4.0458
-4.04584
-4.0459
-4.04597
-4.04605
-4.04615
-4.04627
-4.0464
-4.04655
-4.04673
-4.04693
-4.04715
-4.04742
-4.03969
-4.03968
-4.03968
-4.03967
-4.03966
-4.03966
-4.03966
-4.03966
-4.03966
-4.03966
-4.03966
-4.03967
-4.03968
-4.03969
-4.03971
-4.03974
-4.03977
-4.03982
-4.03987
-4.03993
-4.04
-4.04009
-4.0402
-4.04032
-4.04045
-4.04061
-4.04078
-4.04097
-4.03337
-4.03336
-4.03335
-4.03335
-4.03335
-4.03334
-4.03334
-4.03334
-4.03333
-4.03333
-4.03334
-4.03334
-4.03335
-4.03336
-4.03338
-4.03341
-4.03344
-4.03347
-4.03352
-4.03358
-4.03365
-4.03374
-4.03384
-4.03396
-4.0341
-4.03426
-4.03443
-4.03462
-4.02701
-4.02701
-4.027
-4.027
-4.02699
-4.02699
-4.02699
-4.02698
-4.02698
-4.02698
-4.02698
-4.02699
-4.027
-4.02701
-4.02702
-4.02705
-4.02707
-4.02711
-4.02715
-4.02721
-4.02728
-4.02736
-4.02746
-4.02757
-4.0277
-4.02786
-4.02804
-4.02823
-4.02041
-4.02041
-4.0204
-4.0204
-4.02039
-4.02039
-4.02039
-4.02038
-4.02038
-4.02038
-4.02039
-4.02039
-4.0204
-4.02041
-4.02043
-4.02045
-4.02047
-4.02051
-4.02055
-4.02061
-4.02067
-4.02075
-4.02084
-4.02095
-4.02108
-4.02122
-4.02138
-4.02156
-4.01377
-4.01377
-4.01376
-4.01376
-4.01376
-4.01375
-4.01375
-4.01375
-4.01375
-4.01376
-4.01376
-4.01377
-4.01378
-4.0138
-4.01382
-4.01385
-4.01389
-4.01394
-4.01401
-4.01408
-4.01418
-4.01429
-4.01443
-4.01459
-4.01479
-4.01501
-4.01526
-4.01563
-4.0069
-4.0069
-4.0069
-4.0069
-4.00689
-4.00689
-4.00689
-4.00689
-4.00689
-4.00689
-4.00689
-4.0069
-4.00691
-4.00692
-4.00694
-4.00696
-4.00699
-4.00703
-4.00708
-4.00714
-4.00721
-4.00731
-4.00742
-4.00755
-4.00772
-4.00792
-4.00817
-4.00851
-114.833
-114.833
-114.833
-114.833
-114.833
-114.833
-114.833
-114.833
-114.833
-114.832
-114.832
-114.832
-114.832
-114.832
-114.832
-114.832
-114.832
-114.831
-114.831
-114.831
-114.831
-114.831
-114.831
-114.831
-114.831
-114.831
-114.831
-114.83
-114.836
-114.836
-114.836
-114.836
-114.836
-114.836
-114.836
-114.836
-114.836
-114.836
-114.836
-114.836
-114.836
-114.836
-114.836
-114.836
-114.836
-114.836
-114.836
-114.836
-114.836
-114.836
-114.836
-114.836
-114.836
-114.836
-114.836
-114.836
-114.844
-114.844
-114.844
-114.844
-114.844
-114.844
-114.844
-114.844
-114.844
-114.844
-114.844
-114.844
-114.844
-114.844
-114.844
-114.843
-114.843
-114.843
-114.843
-114.843
-114.843
-114.843
-114.843
-114.843
-114.843
-114.843
-114.843
-114.843
-114.856
-114.856
-114.856
-114.856
-114.856
-114.856
-114.856
-114.856
-114.856
-114.856
-114.856
-114.856
-114.856
-114.856
-114.856
-114.856
-114.856
-114.856
-114.856
-114.856
-114.856
-114.856
-114.856
-114.856
-114.856
-114.855
-114.855
-114.855
-114.873
-114.873
-114.873
-114.873
-114.873
-114.873
-114.873
-114.873
-114.873
-114.873
-114.873
-114.873
-114.873
-114.873
-114.873
-114.873
-114.873
-114.873
-114.873
-114.873
-114.873
-114.873
-114.873
-114.873
-114.872
-114.872
-114.872
-114.872
-7.62316
-7.62311
-7.62307
-7.62306
-7.6231
-7.62319
-7.62338
-7.6237
-7.62418
-7.62488
-7.62586
-7.62719
-7.62895
-7.63122
-7.63412
-7.63774
-7.6422
-7.64761
-7.65408
-7.66173
-7.67065
-7.68094
-7.69269
-7.70597
-7.72083
-7.73733
-7.75556
-7.77519
-7.62673
-7.62668
-7.62664
-7.62664
-7.62668
-7.62679
-7.62699
-7.62733
-7.62783
-7.62854
-7.62953
-7.63086
-7.63261
-7.63488
-7.63774
-7.6413
-7.64567
-7.65095
-7.65724
-7.66465
-7.67327
-7.68317
-7.69443
-7.70711
-7.72126
-7.7369
-7.75405
-7.7727
-7.62905
-7.629
-7.62895
-7.62895
-7.62901
-7.62917
-7.62945
-7.62985
-7.63039
-7.63112
-7.63212
-7.63345
-7.63521
-7.63746
-7.64031
-7.64385
-7.64817
-7.65338
-7.65958
-7.66685
-7.67529
-7.68496
-7.69593
-7.70826
-7.72199
-7.73711
-7.75373
-7.7717
-7.63016
-7.63009
-7.63004
-7.63003
-7.63009
-7.63021
-7.63042
-7.63076
-7.63126
-7.63199
-7.63299
-7.63434
-7.6361
-7.63836
-7.6412
-7.64471
-7.64899
-7.65413
-7.66023
-7.66738
-7.67565
-7.68513
-7.69587
-7.70792
-7.72134
-7.73615
-7.75241
-7.76983
-7.62968
-7.62964
-7.62961
-7.62961
-7.62966
-7.62978
-7.62999
-7.63034
-7.63086
-7.6316
-7.63261
-7.63396
-7.63572
-7.63796
-7.64076
-7.64423
-7.64844
-7.65348
-7.65945
-7.66642
-7.67448
-7.68368
-7.69409
-7.70576
-7.71874
-7.73303
-7.74864
-7.76572
-7.62761
-7.62757
-7.62754
-7.62755
-7.6276
-7.62772
-7.62794
-7.62829
-7.62881
-7.62955
-7.63055
-7.6319
-7.63364
-7.63585
-7.63863
-7.64203
-7.64617
-7.6511
-7.65693
-7.66372
-7.67155
-7.68047
-7.69055
-7.70183
-7.71434
-7.72809
-7.74317
-7.75957
-7.62426
-7.62423
-7.6242
-7.62421
-7.62427
-7.6244
-7.62462
-7.62498
-7.6255
-7.62624
-7.62725
-7.62858
-7.6303
-7.63249
-7.63521
-7.63855
-7.64258
-7.64739
-7.65305
-7.65964
-7.6672
-7.67581
-7.68551
-7.69634
-7.70832
-7.72147
-7.73587
-7.75119
-7.6197
-7.61967
-7.61964
-7.61966
-7.61972
-7.61985
-7.62008
-7.62044
-7.62097
-7.62171
-7.62271
-7.62404
-7.62576
-7.62792
-7.63062
-7.63392
-7.63789
-7.64262
-7.64817
-7.65462
-7.66202
-7.67043
-7.6799
-7.69045
-7.70213
-7.71495
-7.72891
-7.74385
-7.61376
-7.61373
-7.61372
-7.61373
-7.61379
-7.61393
-7.61416
-7.61452
-7.61505
-7.61579
-7.6168
-7.61812
-7.61981
-7.62195
-7.62461
-7.62785
-7.63175
-7.63638
-7.64181
-7.6481
-7.65532
-7.66351
-7.67272
-7.68298
-7.69433
-7.70679
-7.72036
-7.73511
-125.625
-125.626
-125.627
-125.628
-125.628
-125.628
-125.628
-125.628
-125.627
-125.627
-125.626
-125.625
-125.625
-125.625
-125.627
-125.628
-125.63
-125.632
-125.635
-125.638
-125.642
-125.648
-125.654
-125.662
-125.672
-125.683
-125.695
-125.707
-125.763
-125.763
-125.764
-125.765
-125.765
-125.766
-125.768
-125.769
-125.77
-125.772
-125.774
-125.776
-125.779
-125.781
-125.784
-125.787
-125.791
-125.795
-125.799
-125.804
-125.808
-125.812
-125.813
-125.813
-125.812
-125.809
-125.803
-125.791
-3.99996
-3.99995
-3.99995
-3.99995
-3.99995
-3.99994
-3.99994
-3.99994
-3.99994
-3.99993
-3.99993
-3.99993
-3.99993
-3.99993
-3.99993
-3.99993
-3.99993
-3.99993
-3.99992
-3.99992
-3.99992
-3.99992
-3.99991
-3.9999
-3.99987
-3.99984
-3.9998
-3.9997
-3.99306
-3.99306
-3.99305
-3.99305
-3.99305
-3.99304
-3.99304
-3.99304
-3.99304
-3.99304
-3.99304
-3.99304
-3.99304
-3.99304
-3.99305
-3.99306
-3.99307
-3.99308
-3.99309
-3.99311
-3.99313
-3.99315
-3.99318
-3.9932
-3.99323
-3.99326
-3.99327
-3.99325
-3.98595
-3.98595
-3.98594
-3.98594
-3.98594
-3.98594
-3.98594
-3.98593
-3.98593
-3.98593
-3.98593
-3.98594
-3.98594
-3.98594
-3.98595
-3.98596
-3.98597
-3.98599
-3.98601
-3.98604
-3.98608
-3.98612
-3.98618
-3.98624
-3.98632
-3.98642
-3.98653
-3.98668
-3.97888
-3.97888
-3.97887
-3.97887
-3.97887
-3.97887
-3.97886
-3.97886
-3.97886
-3.97886
-3.97886
-3.97887
-3.97887
-3.97887
-3.97888
-3.97889
-3.97891
-3.97893
-3.97895
-3.97898
-3.97901
-3.97905
-3.9791
-3.97916
-3.97923
-3.97931
-3.9794
-3.97951
-3.97165
-3.97165
-3.97165
-3.97165
-3.97165
-3.97164
-3.97164
-3.97164
-3.97164
-3.97165
-3.97165
-3.97166
-3.97167
-3.97168
-3.97169
-3.97172
-3.97174
-3.97178
-3.97182
-3.97187
-3.97194
-3.97202
-3.97211
-3.97222
-3.97235
-3.97251
-3.97268
-3.97293
-3.96438
-3.96438
-3.96438
-3.96438
-3.96438
-3.96438
-3.96438
-3.96438
-3.96438
-3.96438
-3.96438
-3.96439
-3.96439
-3.9644
-3.96441
-3.96443
-3.96445
-3.96447
-3.9645
-3.96454
-3.96459
-3.96465
-3.96473
-3.96482
-3.96493
-3.96506
-3.96522
-3.96544
-3.95698
-3.95698
-3.95698
-3.95698
-3.95697
-3.95697
-3.95697
-3.95697
-3.95697
-3.95697
-3.95697
-3.95696
-3.95696
-3.95696
-3.95696
-3.95696
-3.95696
-3.95695
-3.95695
-3.95695
-3.95694
-3.95693
-3.95692
-3.9569
-3.95686
-3.95682
-3.95674
-3.95664
-3.9497
-3.9497
-3.94969
-3.94969
-3.94969
-3.94969
-3.94969
-3.94969
-3.94969
-3.9497
-3.9497
-3.94971
-3.94972
-3.94973
-3.94975
-3.94977
-3.9498
-3.94984
-3.94988
-3.94993
-3.94999
-3.95007
-3.95016
-3.95026
-3.95038
-3.95051
-3.95064
-3.95082
-3.94219
-3.94219
-3.94219
-3.94219
-3.94219
-3.94219
-3.94219
-3.94219
-3.94219
-3.9422
-3.9422
-3.94221
-3.94222
-3.94224
-3.94226
-3.94228
-3.94232
-3.94236
-3.94241
-3.94248
-3.94256
-3.94266
-3.94279
-3.94295
-3.94315
-3.9434
-3.94373
-3.94422
-3.93461
-3.93461
-3.93461
-3.93461
-3.93461
-3.93461
-3.9346
-3.9346
-3.9346
-3.9346
-3.93459
-3.93459
-3.93458
-3.93457
-3.93456
-3.93455
-3.93453
-3.93451
-3.93448
-3.93445
-3.93441
-3.93436
-3.93429
-3.93421
-3.9341
-3.93396
-3.93381
-3.93357
-3.92732
-3.92732
-3.92732
-3.92731
-3.92731
-3.92731
-3.92731
-3.92731
-3.92731
-3.92731
-3.92731
-3.92732
-3.92732
-3.92732
-3.92733
-3.92733
-3.92734
-3.92735
-3.92736
-3.92736
-3.92738
-3.92738
-3.92739
-3.92739
-3.92739
-3.92737
-3.92732
-3.9272
-122.805
-122.805
-122.805
-122.805
-122.805
-122.805
-122.806
-122.806
-122.806
-122.806
-122.806
-122.807
-122.807
-122.807
-122.807
-122.807
-122.806
-122.806
-122.805
-122.803
-122.802
-122.799
-122.797
-122.794
-122.79
-122.786
-122.781
-122.775
-122.688
-122.688
-122.688
-122.688
-122.688
-122.688
-122.688
-122.689
-122.689
-122.689
-122.689
-122.69
-122.69
-122.69
-122.69
-122.69
-122.689
-122.689
-122.688
-122.686
-122.684
-122.682
-122.679
-122.676
-122.671
-122.666
-122.661
-122.654
-122.553
-122.553
-122.553
-122.553
-122.553
-122.553
-122.553
-122.554
-122.554
-122.554
-122.554
-122.554
-122.555
-122.555
-122.555
-122.555
-122.554
-122.554
-122.553
-122.552
-122.55
-122.548
-122.545
-122.542
-122.538
-122.532
-122.527
-122.519
-123.536
-123.536
-123.536
-123.535
-123.535
-123.534
-123.533
-123.533
-123.532
-123.531
-123.53
-123.529
-123.529
-123.528
-123.528
-123.528
-123.529
-123.53
-123.532
-123.535
-123.539
-123.544
-123.55
-123.558
-123.567
-123.577
-123.589
-123.603
-123.388
-123.388
-123.387
-123.387
-123.387
-123.387
-123.386
-123.386
-123.385
-123.385
-123.384
-123.384
-123.384
-123.384
-123.384
-123.385
-123.386
-123.388
-123.39
-123.393
-123.397
-123.402
-123.408
-123.415
-123.424
-123.435
-123.447
-123.462
-116.429
-116.429
-116.428
-116.428
-116.428
-116.428
-116.428
-116.428
-116.428
-116.428
-116.428
-116.427
-116.427
-116.427
-116.427
-116.427
-116.427
-116.427
-116.427
-116.427
-116.428
-116.428
-116.429
-116.43
-116.431
-116.433
-116.435
-116.437
-116.336
-116.336
-116.336
-116.336
-116.336
-116.336
-116.335
-116.335
-116.335
-116.335
-116.335
-116.335
-116.335
-116.335
-116.335
-116.335
-116.335
-116.335
-116.335
-116.336
-116.336
-116.337
-116.338
-116.339
-116.341
-116.342
-116.344
-116.345
-116.249
-116.249
-116.249
-116.249
-116.249
-116.249
-116.249
-116.249
-116.249
-116.249
-116.249
-116.249
-116.249
-116.249
-116.249
-116.249
-116.249
-116.25
-116.251
-116.251
-116.252
-116.253
-116.255
-116.256
-116.258
-116.26
-116.262
-116.264
-116.167
-116.167
-116.167
-116.167
-116.167
-116.167
-116.167
-116.167
-116.167
-116.167
-116.167
-116.167
-116.167
-116.167
-116.167
-116.168
-116.168
-116.169
-116.169
-116.17
-116.171
-116.172
-116.174
-116.175
-116.177
-116.179
-116.182
-116.184
-116.091
-116.091
-116.091
-116.091
-116.091
-116.09
-116.09
-116.09
-116.09
-116.09
-116.09
-116.09
-116.09
-116.09
-116.09
-116.09
-116.09
-116.09
-116.09
-116.089
-116.089
-116.089
-116.088
-116.088
-116.087
-116.086
-116.085
-116.083
-125.692
-125.692
-125.692
-125.693
-125.695
-125.697
-125.701
-125.705
-125.71
-125.715
-125.72
-125.726
-125.733
-125.741
-125.751
-125.762
-125.774
-125.787
-125.8
-125.811
-125.821
-125.827
-125.829
-125.825
-125.814
-125.794
-125.765
-125.728
-127.13
-127.13
-127.129
-127.127
-127.124
-127.118
-127.111
-127.102
-127.092
-127.081
-127.069
-127.059
-127.052
-127.05
-127.055
-127.067
-127.085
-127.107
-127.133
-127.16
-127.19
-127.221
-127.25
-127.276
-127.3
-127.322
-127.343
-127.363
-125.335
-125.334
-125.333
-125.333
-125.332
-125.333
-125.333
-125.335
-125.337
-125.34
-125.343
-125.347
-125.351
-125.355
-125.359
-125.363
-125.366
-125.368
-125.37
-125.372
-125.373
-125.374
-125.376
-125.378
-125.383
-125.387
-125.393
-125.394
-124.852
-124.851
-124.85
-124.848
-124.847
-124.846
-124.845
-124.845
-124.845
-124.847
-124.849
-124.852
-124.856
-124.861
-124.867
-124.873
-124.88
-124.887
-124.894
-124.901
-124.906
-124.91
-124.913
-124.917
-124.923
-124.93
-124.942
-124.959
-116.539
-116.539
-116.539
-116.539
-116.539
-116.539
-116.539
-116.539
-116.539
-116.539
-116.539
-116.539
-116.539
-116.539
-116.539
-116.539
-116.539
-116.539
-116.539
-116.539
-116.539
-116.539
-116.539
-116.539
-116.539
-116.539
-116.539
-116.539
-116.653
-116.653
-116.653
-116.653
-116.653
-116.653
-116.653
-116.653
-116.653
-116.653
-116.653
-116.653
-116.654
-116.654
-116.654
-116.654
-116.654
-116.654
-116.654
-116.654
-116.654
-116.654
-116.654
-116.655
-116.655
-116.655
-116.655
-116.656
-116.771
-116.771
-116.771
-116.771
-116.771
-116.771
-116.771
-116.771
-116.771
-116.771
-116.771
-116.771
-116.772
-116.772
-116.772
-116.772
-116.772
-116.772
-116.772
-116.773
-116.773
-116.774
-116.774
-116.775
-116.776
-116.777
-116.778
-116.78
-116.89
-116.89
-116.89
-116.89
-116.89
-116.89
-116.89
-116.89
-116.89
-116.89
-116.89
-116.89
-116.89
-116.891
-116.891
-116.891
-116.891
-116.891
-116.891
-116.891
-116.891
-116.891
-116.891
-116.892
-116.892
-116.892
-116.893
-116.893
-126.627
-126.625
-126.622
-126.62
-126.618
-126.617
-126.616
-126.618
-126.621
-126.626
-126.632
-126.64
-126.649
-126.66
-126.671
-126.682
-126.692
-126.702
-126.711
-126.719
-126.728
-126.738
-126.75
-126.765
-126.787
-126.814
-126.848
-126.881
-125.646
-125.647
-125.647
-125.648
-125.648
-125.649
-125.649
-125.649
-125.649
-125.65
-125.65
-125.65
-125.651
-125.652
-125.654
-125.657
-125.66
-125.664
-125.669
-125.675
-125.68
-125.686
-125.692
-125.697
-125.702
-125.707
-125.711
-125.713
-127.978
-127.978
-127.978
-127.982
-127.989
-127.999
-128.012
-128.028
-128.045
-128.063
-128.08
-128.092
-128.098
-128.095
-128.08
-128.054
-128.02
-127.981
-127.941
-127.903
-127.869
-127.84
-127.816
-127.795
-127.776
-127.758
-127.742
-127.73
-125.817
-125.818
-125.82
-125.822
-125.825
-125.83
-125.835
-125.841
-125.848
-125.854
-125.86
-125.865
-125.871
-125.877
-125.884
-125.891
-125.9
-125.91
-125.922
-125.935
-125.946
-125.951
-125.95
-125.941
-125.927
-125.91
-125.889
-125.857
-125.855
-125.855
-125.855
-125.854
-125.853
-125.85
-125.847
-125.843
-125.838
-125.831
-125.823
-125.814
-125.805
-125.797
-125.789
-125.782
-125.777
-125.775
-125.776
-125.781
-125.789
-125.801
-125.818
-125.84
-125.868
-125.902
-125.942
-125.99
-125.82
-125.821
-125.822
-125.823
-125.824
-125.825
-125.827
-125.829
-125.831
-125.834
-125.839
-125.844
-125.849
-125.854
-125.858
-125.862
-125.867
-125.872
-125.877
-125.882
-125.887
-125.891
-125.896
-125.903
-125.912
-125.923
-125.936
-125.954
-465.419
-465.717
-466.079
-466.434
-466.629
-466.578
-466.147
-465.161
-463.508
-461.376
-459.224
-457.077
-454.874
-452.212
-448.778
-444.566
-439.749
-434.506
-428.942
-423.043
-416.839
-410.346
-403.61
-396.612
-389.409
-382.028
-374.298
-366.721
-500.914
-500.974
-501.116
-501.34
-501.575
-501.743
-501.544
-500.169
-496.913
-492.485
-487.716
-482.332
-476.267
-469.97
-463.678
-457.363
-450.936
-444.338
-437.535
-430.556
-423.44
-416.154
-408.748
-401.154
-393.511
-385.61
-377.709
-369.652
-500.927
-500.902
-500.834
-500.662
-500.246
-499.366
-497.923
-496.157
-493.76
-490.137
-485.214
-479.495
-473.446
-467.254
-460.934
-454.483
-447.892
-441.144
-434.243
-427.192
-420
-412.682
-405.243
-397.661
-389.993
-382.086
-374.261
-365.941
-512.047
-512.03
-511.986
-511.801
-511.262
-510.08
-507.934
-504.703
-500.475
-495.398
-489.798
-483.893
-477.796
-471.547
-465.157
-458.631
-451.956
-445.127
-438.144
-431.015
-423.753
-416.356
-408.84
-401.189
-393.437
-385.534
-377.614
-369.396
-521.604
-521.563
-521.412
-520.929
-519.805
-517.712
-514.462
-510.099
-504.853
-499.017
-492.823
-486.414
-479.875
-473.233
-466.484
-459.608
-452.589
-445.423
-438.113
-430.665
-423.086
-415.38
-407.552
-399.585
-391.515
-383.274
-374.975
-366.525
-528.536
-528.432
-527.99
-526.966
-525.211
-522.39
-518.383
-513.384
-507.726
-501.646
-495.25
-488.726
-482.103
-475.373
-468.512
-461.498
-454.323
-446.993
-439.519
-431.915
-424.192
-416.356
-408.41
-400.35
-392.202
-383.911
-375.645
-367.137
-536.901
-536.473
-535.372
-533.512
-530.959
-527.369
-522.631
-516.985
-510.748
-504.16
-497.402
-490.52
-483.536
-476.44
-469.209
-461.83
-454.298
-446.62
-438.806
-430.864
-422.801
-414.619
-406.316
-397.892
-389.351
-380.671
-371.939
-363.089
-537.696
-537.365
-536.577
-534.973
-532.133
-528.046
-522.884
-516.902
-510.409
-503.631
-496.69
-489.655
-482.538
-475.32
-467.972
-460.479
-452.836
-445.054
-437.144
-429.122
-420.997
-412.773
-404.453
-396.041
-387.539
-378.936
-370.366
-361.54
-534.708
-534.503
-533.664
-531.819
-528.808
-524.542
-519.182
-513.042
-506.428
-499.549
-492.527
-485.407
-478.195
-470.868
-463.397
-455.77
-447.984
-440.05
-431.979
-423.784
-415.473
-407.046
-398.506
-389.852
-381.074
-372.205
-363.272
-354.227
-125.662
-125.662
-125.662
-125.663
-125.663
-125.663
-125.662
-125.662
-125.662
-125.662
-125.662
-125.661
-125.661
-125.66
-125.66
-125.66
-125.66
-125.661
-125.662
-125.665
-125.67
-125.676
-125.685
-125.695
-125.706
-125.719
-125.732
-125.748
-124.52
-124.519
-124.518
-124.517
-124.515
-124.513
-124.51
-124.506
-124.502
-124.498
-124.494
-124.49
-124.485
-124.48
-124.475
-124.47
-124.466
-124.463
-124.461
-124.461
-124.465
-124.473
-124.486
-124.504
-124.526
-124.553
-124.581
-124.616
-125.777
-125.777
-125.778
-125.778
-125.779
-125.779
-125.779
-125.78
-125.781
-125.782
-125.783
-125.784
-125.785
-125.786
-125.787
-125.788
-125.789
-125.789
-125.79
-125.791
-125.793
-125.795
-125.798
-125.803
-125.809
-125.816
-125.825
-125.837
-118.512
-118.512
-118.512
-118.512
-118.512
-118.512
-118.512
-118.512
-118.511
-118.511
-118.511
-118.511
-118.511
-118.511
-118.511
-118.511
-118.511
-118.511
-118.511
-118.511
-118.511
-118.51
-118.51
-118.51
-118.509
-118.508
-118.507
-118.506
-118.393
-118.393
-118.392
-118.392
-118.392
-118.392
-118.392
-118.392
-118.392
-118.392
-118.392
-118.392
-118.392
-118.392
-118.392
-118.392
-118.392
-118.392
-118.392
-118.392
-118.392
-118.392
-118.392
-118.392
-118.392