/*--------------------------------*- C++ -*----------------------------------*\
| =========                 |                                                 |
| \\      /  F ield         | OpenFOAM: The Open Source CFD Toolbox           |
|  \\    /   O peration     | Version:  2412                                  |
|   \\  /    A nd           | Website:  www.openfoam.com                      |
|    \\/     M anipulation  |                                                 |
\*---------------------------------------------------------------------------*/
FoamFile
{
    version     2.0;
    format      ascii;
    arch        "LSB;label=32;scalar=64";
    class       volVectorField;
    location    "1000";
    object      wallShearStress;
}
// * * * * * * * * * * * * * * * * * * * * * * * * * * * * * * * * * * * * * //

dimensions      [0 2 -2 0 0 0 0];

internalField   uniform (0 0 0);

boundaryField
{
    frontAndBack
    {
        type            empty;
    }
    symmetry
    {
        type            symmetryPlane;
    }
    outlet
    {
        type            calculated;
        value           uniform (0 0 0);
    }
    wall
    {
        type            calculated;
        value           nonuniform List<vector> 
1155
(
(0.0205255 -0.00122146 -1.95672e-23)
(0.0204342 -0.00118985 2.49778e-21)
(0.0203529 -0.00115931 9.74369e-24)
(0.0202748 -0.00112903 2.4843e-21)
(0.0201911 -0.00109872 1.44624e-27)
(0.0201133 -0.00106913 -2.46144e-21)
(0.0200417 -0.00104 -2.54901e-26)
(0.0199646 -0.00101069 -9.61316e-24)
(0.0198809 -0.000981399 -2.46122e-21)
(0.0198014 -0.000952657 2.45486e-21)
(0.0197222 -0.000924049 0)
(0.272461 0.00029517 0)
(0.262096 0.000305413 0)
(0.250689 0.000404782 0)
(0.240588 0.000528805 0)
(0.228354 0.000281417 0)
(0.216218 0.000313462 0)
(-0.0513938 -6.78051e-06 0)
(-0.0511926 -6.98719e-06 0)
(-0.0510072 -5.94557e-06 0)
(-0.0508711 -6.78466e-06 0)
(-0.0505843 -9.08325e-06 0)
(0.00143322 -9.84695e-05 0)
(0.00395476 -8.21043e-05 0)
(0.00641057 -5.68483e-05 0)
(0.0090061 -5.69866e-05 0)
(0.0114721 -5.86354e-05 0)
(0.0141714 -9.05867e-05 0)
(0.341121 8.15882e-05 0)
(0.33913 9.88723e-05 0)
(0.336408 0.000127907 0)
(0.33254 0.000153776 0)
(0.327827 0.000172852 0)
(0.322456 0.000193741 0)
(-0.14797 0.0171806 -1.76372e-19)
(-0.141456 0.0166433 1.75993e-19)
(-0.131129 0.0153269 9.02333e-25)
(-0.105364 0.0117873 -5.71218e-20)
(-0.0789892 0.00860332 1.25827e-19)
(-0.0565246 0.00644967 -7.64371e-22)
(-0.0405848 0.00475273 3.5306e-19)
(0.0169425 -9.09492e-05 -5.65223e-22)
(0.0169206 -7.06096e-05 0)
(0.0168951 -5.06066e-05 -1.65734e-39)
(0.0169082 -3.12139e-05 -7.04597e-23)
(0.0169601 -1.21225e-05 3.51766e-23)
(0.017081 -2.95317e-06 0)
(0.0172079 -2.58873e-06 0)
(0.0173133 -2.41141e-06 0)
(0.017415 -2.15477e-06 0)
(0.0175065 -2.06539e-06 0)
(0.0175907 -1.47297e-06 0)
(-0.0436465 -3.61764e-05 0)
(-0.0428327 -1.95678e-05 0)
(-0.0420065 -2.29364e-05 0)
(-0.0410691 -2.39576e-05 0)
(-0.0400694 -2.44351e-05 0)
(0.0204835 -0.0135345 6.99119e-26)
(0.0215166 -0.0138781 -1.32605e-22)
(0.0225347 -0.0142009 -1.41534e-22)
(0.0235225 -0.0145144 3.20245e-25)
(0.0244452 -0.0147261 -2.34777e-20)
(0.0254011 -0.014976 0)
(0.0262758 -0.0151675 3.39403e-20)
(0.0271304 -0.0153418 1.36227e-25)
(0.0279467 -0.0154883 -3.3893e-20)
(-0.0128624 -0.000610695 0)
(0.0105037 -0.00013243 0)
(0.0176362 -1.19004e-06 0)
(0.0177018 -1.51322e-06 0)
(0.0177637 -1.23755e-06 0)
(0.017816 -1.31397e-06 0)
(0.0178757 -1.19948e-06 0)
(0.0179218 -8.54609e-07 0)
(0.0179469 -6.36475e-07 0)
(0.0179857 -1.06703e-06 0)
(0.0180317 -3.82849e-07 0)
(0.0180155 1.0379e-07 0)
(0.0180371 -6.9577e-07 0)
(-0.02483 1.57189e-05 0)
(-0.0257078 4.90025e-05 0)
(-0.02781 6.80059e-05 0)
(-0.0402196 -9.1866e-06 0)
(-0.0396611 -8.95746e-05 0)
(-0.0541719 7.68195e-06 0)
(-0.0546004 2.22872e-06 0)
(-0.0548736 -8.34818e-07 0)
(-0.0549695 -7.45099e-06 0)
(-0.0546502 -1.3944e-05 0)
(0.00330254 0.000511559 0)
(-0.0466489 -0.000583327 0)
(-0.0181065 0.000600062 0)
(-0.0422336 0.00032911 0)
(-0.005363 -2.60498e-05 0)
(-0.00391092 -2.49722e-05 0)
(-0.00249775 -2.14068e-05 0)
(-0.00105947 -3.0416e-05 0)
(-0.0410329 0.000677797 0)
(-0.00375465 -0.000402975 0)
(0.0170283 0.00117785 0)
(0.0131844 -9.33928e-05 0)
(-0.0591714 -0.00067237 0)
(-0.0395003 -0.000327434 0)
(-0.127243 -0.191871 2.93874e-39)
(-0.00255551 -0.159497 8.28104e-23)
(-0.00468245 -0.0282197 2.22504e-19)
(-0.0309455 -0.135595 -8.97621e-21)
(0.108227 0.278257 -8.84762e-23)
(0.399155 0.878868 2.32735e-18)
(0.861465 1.33929 8.31854e-19)
(1.21625 1.52767 4.70196e-22)
(1.52102 1.72053 4.58753e-18)
(-0.0255886 -0.000221526 0)
(-0.0574081 -0.000164472 0)
(-0.0286961 -8.37114e-05 0)
(-0.0472963 2.30087e-05 0)
(-0.0484629 2.25511e-05 0)
(-0.0495896 2.482e-05 0)
(-0.0507659 2.76497e-05 0)
(-0.0520301 2.77571e-05 0)
(-0.0295478 -0.000393163 0)
(0.0287774 -0.000295672 0)
(-0.0223539 -4.06361e-05 0)
(0.00363507 0.00118425 0)
(-0.0435885 -0.000666187 0)
(0.0329677 0.000611739 0)
(-0.0736196 5.00051e-05 0)
(-0.0223157 0.000185216 0)
(-0.0459041 0.000504069 0)
(0.111316 -0.000168464 0)
(0.11805 -0.00016814 0)
(0.12497 -0.000166053 0)
(0.13156 -0.000163728 0)
(0.138585 -0.00018101 0)
(-0.0555353 -0.00208748 0)
(-0.0172558 -0.00176122 0)
(-0.0493507 -4.90683e-05 0)
(-0.0134881 -0.000630871 0)
(-0.0404261 1.31985e-06 0)
(-0.055707 -2.83784e-06 0)
(-0.0532864 2.43855e-05 0)
(0.143347 0.000244589 0)
(0.132849 0.000221216 0)
(0.122895 0.00020371 0)
(0.11314 0.00019895 0)
(0.103157 0.000197151 0)
(0.0932304 0.000190872 0)
(0.0243521 -0.0036423 -2.38367e-23)
(0.0241748 -0.00357473 -1.21893e-20)
(0.0240084 -0.00350967 2.37779e-23)
(0.0238521 -0.003447 -1.21274e-20)
(0.0237177 -0.00338819 -2.93874e-39)
(0.0235708 -0.00332789 2.35241e-23)
(0.0234436 -0.0032719 -1.20508e-20)
(0.0233459 -0.00322015 -1.76324e-38)
(0.0232447 -0.00316875 4.0208e-27)
(0.0231802 -0.00312279 -1.7204e-40)
(-0.00708467 2.3209e-05 0)
(-0.00803427 1.56905e-05 0)
(-0.00897261 -5.7454e-07 0)
(-0.00924012 8.25734e-06 0)
(-0.0094787 7.19871e-06 0)
(-0.00950528 -1.32752e-05 0)
(0.0776309 -0.000177772 0)
(0.08457 -0.000174222 0)
(0.0913591 -0.000170104 0)
(0.0980864 -0.000166723 0)
(0.104645 -0.000161502 0)
(-0.0205894 -2.91812e-05 0)
(-0.0191761 -3.07355e-05 0)
(-0.0177477 -3.08588e-05 0)
(-0.0163059 -3.14602e-05 0)
(-0.0147803 -3.255e-05 0)
(0.0243768 -8.68463e-05 0)
(0.0278568 -0.000110646 0)
(0.032042 -0.000125497 0)
(0.0366612 -0.000130061 0)
(0.0419378 -0.000145275 0)
(0.0107625 -0.00920148 -6.71282e-20)
(0.0118493 -0.00979884 1.31435e-22)
(0.0128609 -0.0103045 1.34444e-19)
(0.0139955 -0.010875 6.75841e-20)
(0.0150318 -0.011342 6.75491e-20)
(0.0161611 -0.0118539 -3.39502e-20)
(0.0172503 -0.0123099 3.39878e-20)
(0.018328 -0.0127377 3.37562e-20)
(0.0194134 -0.0131505 2.648e-22)
(0.171293 -0.011999 -3.82986e-22)
(0.176876 -0.0125881 3.82948e-22)
(0.180143 -0.0129828 3.83714e-22)
(0.17956 -0.0130779 -3.83715e-22)
(0.174919 -0.012875 0)
(0.166404 -0.0122643 2.98496e-20)
(0.155632 -0.0115556 1.3019e-25)
(-0.399265 0.0846549 1.32065e-21)
(-0.454949 0.0968114 -1.31915e-21)
(-0.493492 0.105365 -3.32346e-19)
(-0.511084 0.109776 2.55451e-21)
(-0.512488 0.110844 -1.26955e-21)
(-0.500018 0.108948 0)
(-0.477228 0.104823 -3.16308e-19)
(0.14619 -0.000179405 0)
(0.153393 -0.000182104 0)
(0.161217 -0.000191028 0)
(0.168884 -0.00018608 0)
(0.176673 -0.000197688 0)
(0.0186047 -2.17008e-06 0)
(0.0187071 -2.18045e-06 0)
(0.01881 -2.30486e-06 0)
(0.0189202 -2.3833e-06 0)
(0.019033 -2.47761e-06 0)
(0.0191489 -2.51628e-06 0)
(0.0192686 -2.66852e-06 0)
(0.0193944 -2.66952e-06 0)
(0.019517 -2.73559e-06 0)
(0.0196489 -2.87273e-06 0)
(0.019782 -2.88576e-06 0)
(0.019918 -3.01777e-06 0)
(0.0200611 -3.1079e-06 0)
(0.0202067 -3.19552e-06 0)
(0.0318026 0.000115374 0)
(0.0248183 0.000100941 0)
(0.0185761 7.85084e-05 0)
(0.0133635 5.91237e-05 0)
(0.00892913 4.18587e-05 0)
(0.00518524 2.78774e-05 0)
(0.0341157 -0.0157933 7.49009e-26)
(0.0345507 -0.0157366 3.32868e-20)
(0.0349445 -0.0156629 3.31428e-20)
(0.0353219 -0.0155851 -3.2996e-20)
(0.0356836 -0.015502 3.291e-20)
(0.036008 -0.0154051 6.44446e-23)
(0.0363082 -0.0153008 -2.77417e-36)
(0.0365787 -0.0151869 -3.27008e-20)
(0.0368204 -0.0150641 -3.27318e-20)
(0.0382227 -0.0120196 3.04556e-20)
(0.0381637 -0.0118574 0)
(0.0380969 -0.0116963 6.01067e-27)
(0.0380356 -0.0115393 6.02078e-20)
(0.0379322 -0.0113728 0)
(0.0378541 -0.0112177 -1.66197e-36)
(0.0377637 -0.0110605 3.69179e-38)
(0.0376531 -0.0109011 -5.77683e-23)
(0.0375524 -0.0107467 5.77699e-23)
(-0.0497445 2.77346e-05 0)
(-0.0510967 -7.94048e-08 0)
(-0.0513792 -2.07486e-05 0)
(-0.0507975 -3.83921e-05 0)
(0.0230906 -5.389e-06 0)
(0.0233444 -5.62221e-06 0)
(0.0236104 -5.88216e-06 0)
(0.0238858 -6.04129e-06 0)
(0.0241692 -6.32514e-06 0)
(0.02447 -6.58592e-06 0)
(0.0247759 -6.75177e-06 0)
(0.0250978 -7.18763e-06 0)
(0.0254374 -7.46108e-06 0)
(0.0257892 -7.82986e-06 0)
(0.0261593 -8.15892e-06 0)
(0.0265433 -8.52917e-06 0)
(0.0269474 -8.99532e-06 0)
(0.0273742 -9.50152e-06 0)
(0.0278242 -1.00192e-05 0)
(-0.0474013 -5.3605e-05 0)
(-0.0451665 -5.01153e-05 0)
(-0.0430539 -3.64029e-05 0)
(-0.0413773 -1.93149e-05 0)
(-0.00898654 -3.98962e-05 0)
(-0.00809522 -5.8387e-05 0)
(-0.00680982 -8.22221e-05 0)
(-0.00514039 -7.66271e-05 0)
(-0.00320606 -7.4667e-05 0)
(-0.00101862 -8.33026e-05 0)
(-0.0468184 -1.44622e-05 0)
(-0.0462377 -1.59328e-05 0)
(-0.0456998 -1.57774e-05 0)
(-0.0450825 -1.8954e-05 0)
(-0.0442774 -2.88972e-05 0)
(0.225915 -0.000190306 0)
(0.233905 -0.000193773 0)
(0.24181 -0.000182104 0)
(0.249516 -0.000182174 0)
(0.256979 -0.000177652 0)
(0.0180168 3.88308e-07 0)
(0.0179726 8.87352e-07 0)
(0.0179544 1.63617e-07 0)
(0.0179474 4.67971e-07 0)
(0.0179245 2.08137e-07 0)
(0.017924 1.90373e-07 0)
(0.0179113 2.75747e-07 0)
(0.0178968 3.93229e-07 0)
(0.0178816 2.49619e-07 0)
(0.017873 2.65963e-07 0)
(0.0178611 2.24775e-07 0)
(-0.0542563 -1.18226e-05 0)
(-0.0538862 -1.12536e-05 0)
(-0.0534955 -9.44883e-06 0)
(-0.0531595 -8.24476e-06 0)
(-0.0528193 -7.24981e-06 0)
(-0.315052 0.235986 1.43768e-18)
(-0.327342 0.254538 1.30493e-19)
(-0.257957 0.19517 -2.90065e-18)
(-0.152712 0.122577 1.50631e-18)
(-0.197165 0.170348 -1.36116e-21)
(-0.382439 0.342853 7.63222e-26)
(-0.532897 0.472449 2.92627e-23)
(-0.485571 0.421523 -2.9541e-21)
(0.018327 -0.0520428 1.626e-18)
(0.000103144 0.00105594 0)
(-1.35674e-05 -8.45534e-05 2.01364e-21)
(1.30233e-05 -0.000245399 -2.82119e-37)
(6.94402e-05 -0.000589717 -2.93874e-39)
(0.000167183 -0.000946244 1.61533e-20)
(0.000232542 -0.00102351 -3.23568e-20)
(0.000377254 -0.00134915 -3.23288e-20)
(0.000465654 -0.00141254 -1.26715e-22)
(0.000633351 -0.00166897 -3.24188e-20)
(0.0319247 -0.00656774 1.31989e-20)
(0.0316688 -0.00644513 5.13074e-23)
(0.031413 -0.00632471 -5.13085e-23)
(0.0311608 -0.00620675 -2.61445e-20)
(0.0309063 -0.00609004 -1.30315e-20)
(0.0306463 -0.0059738 -5.06899e-23)
(0.0303784 -0.0058578 1.30027e-20)
(0.0301084 -0.00574323 -5.87747e-39)
(0.0298345 -0.00562959 -0)
(1.78538 1.66042 4.53205e-18)
(1.86843 1.43906 -6.01853e-36)
(1.46326 0.848204 -3.79706e-19)
(1.052 0.55186 -1.01155e-18)
(-0.285324 -0.0905879 7.52316e-37)
(-0.535984 -0.131188 -4.7596e-21)
(-0.81665 -0.0627022 1.88347e-18)
(-1.48617 0.0854635 -6.51329e-19)
(0.488876 -0.293443 2.19948e-20)
(0.0899606 -0.0315064 -5.95464e-21)
(-0.229633 0.147113 5.06483e-20)
(-0.0779582 0.0469256 -9.40395e-38)
(-0.0307944 0.0239723 -7.11912e-22)
(-0.074044 0.0533792 0)
(-0.10015 0.0720698 7.32335e-19)
(-0.151194 0.116601 -3.45533e-23)
(-0.0163486 0.00334669 -3.58296e-19)
(-0.0291243 0.00624627 -2.35099e-38)
(-0.0514916 0.0112421 -3.03525e-19)
(-0.0919332 0.0194238 3.56749e-19)
(-0.137561 0.0288792 3.53411e-19)
(-0.188853 0.0397201 -3.52206e-19)
(-0.251288 0.0531724 1.35023e-21)
(-0.326758 0.0694339 -1.35415e-21)
(-0.119695 0.0375386 -5.85705e-19)
(-0.121284 0.0380467 3.76158e-37)
(-0.107809 0.0339165 -6.02955e-20)
(-0.0942381 0.0296588 2.69984e-19)
(-0.0722139 0.0231306 7.52316e-37)
(-0.0527688 0.0170807 -1.1741e-18)
(-0.0362814 0.0119403 -1.15165e-21)
(-0.0264812 0.00338737 -3.5404e-19)
(-0.032004 0.00443942 6.90767e-22)
(-0.0484704 0.00671142 -6.92891e-22)
(-0.0644218 0.0089507 6.92644e-22)
(-0.0798436 0.0111172 -1.14351e-24)
(-0.0930655 0.013001 -7.31803e-22)
(0.0397277 -3.05627e-05 0)
(0.0412071 -3.42889e-05 0)
(0.0428687 -3.8679e-05 0)
(0.0447514 -4.42417e-05 0)
(0.0469149 -5.11668e-05 0)
(0.0494261 -6.00945e-05 0)
(0.0523968 -7.20223e-05 0)
(0.0559815 -8.84269e-05 0)
(0.0604249 -0.000112258 0)
(0.0661335 -0.000148735 0)
(0.0737989 -0.000209295 0)
(0.0847934 -0.000315191 0)
(0.10151 -0.000546085 0)
(0.131935 -0.00106692 0)
(0.0282241 -0.00225242 3.77065e-22)
(0.0162509 -0.00119935 -3.77157e-22)
(0.00288043 0.000298238 -1.91735e-19)
(-0.0145819 0.00200334 -3.81364e-19)
(-0.0368202 0.00411306 1.89476e-19)
(-0.060062 0.00625644 0)
(0.0161858 -3.97765e-07 0)
(0.016208 -5.17306e-07 0)
(0.0162334 -5.41136e-07 0)
(0.0162607 -6.33437e-07 0)
(0.0162915 -6.14121e-07 0)
(0.016319 -5.50777e-07 0)
(0.0163445 -7.48728e-07 0)
(0.0163941 -1.1257e-06 0)
(0.0164415 -8.3472e-07 0)
(0.0164756 -8.55302e-07 0)
(0.0165191 -9.41435e-07 0)
(0.0165648 -9.93208e-07 0)
(0.0166078 -8.81042e-07 0)
(0.0166496 -9.66127e-07 0)
(0.131111 -0.00495786 -4.36584e-36)
(0.135771 -0.0053106 5.23461e-41)
(0.140571 -0.00565997 3.54791e-39)
(0.14478 -0.00600285 0)
(0.148885 -0.0063608 -9.06406e-20)
(0.153459 -0.0067576 -9.10344e-20)
(0.0490957 -0.000346905 1.46937e-39)
(0.0516043 -0.000426054 -1.86813e-36)
(0.0540069 -0.000510304 -6.67894e-43)
(0.0564545 -0.000598259 1.51576e-26)
(0.0588382 -0.000699383 -2.0842e-20)
(0.0616899 -0.000812096 -8.16715e-23)
(-0.360105 1.04945 -4.90769e-37)
(-0.568298 1.65554 2.41325e-21)
(-0.429302 1.42193 -1.2018e-18)
(-0.340639 0.601684 1.22335e-21)
(0.297171 -2.38512 6.50464e-19)
(1.18144 -6.4931 -8.60857e-19)
(0.467057 -2.18033 9.6553e-21)
(-0.11974 1.06941 2.73663e-20)
(0.0103199 -0.000511911 0)
(-0.299578 0.162111 -1.30143e-18)
(-0.312825 0.173093 -1.25469e-19)
(-0.347287 0.194813 -1.27878e-19)
(-0.348885 0.19481 9.17254e-24)
(-0.26318 0.139643 -2.52977e-19)
(0.0561023 -0.046248 2.53356e-21)
(0.443121 -0.276151 -6.79985e-19)
(0.675981 -0.409222 -7.52316e-37)
(0.0382094 -0.0136201 -3.16075e-20)
(0.0382605 -0.013462 -3.1434e-20)
(0.0383048 -0.0133049 -6.14041e-23)
(0.0383307 -0.0131447 -3.12069e-20)
(0.03835 -0.0129858 3.10921e-20)
(0.0383539 -0.012825 -3.10375e-20)
(0.0383502 -0.0126647 -6.028e-23)
(0.0383312 -0.0125028 6.02819e-23)
(0.038307 -0.0123425 -3.06299e-20)
(0.0382667 -0.0121799 -5.9827e-23)
(0.0316093 -7.90888e-05 0)
(0.0342439 -7.7667e-05 0)
(0.0376078 -0.000115176 -1.58134e-40)
(0.0405689 -0.000152144 2.42469e-37)
(0.0434921 -0.000224725 5.1793e-21)
(0.046695 -0.000278558 -1.03527e-20)
(0.18973 -0.0100277 3.65715e-22)
(0.193931 -0.0104705 -9.42264e-20)
(0.196729 -0.0108456 0)
(0.199551 -0.0112475 3.71878e-22)
(0.200875 -0.0115063 -7.45178e-22)
(0.198265 -0.0115445 -9.53832e-20)
(0.193469 -0.011496 -3.76079e-22)
(-0.0383057 7.06889e-05 0)
(-0.0411648 7.94168e-05 0)
(-0.044458 7.12084e-05 0)
(-0.0474083 5.21512e-05 0)
(0.00197595 2.79066e-05 0)
(-0.000523698 4.44015e-05 0)
(-0.00247666 4.55267e-05 0)
(-0.00406997 3.41349e-05 0)
(-0.00527109 2.49839e-05 0)
(-0.00632051 2.07522e-05 0)
(0.000498333 -5.06997e-05 0)
(0.00165334 -5.16584e-05 0)
(0.00317487 -4.02932e-05 0)
(0.0046187 -3.36156e-05 0)
(0.0060204 -3.95293e-05 0)
(0.0227939 -0.00264557 -5.76424e-21)
(0.0227503 -0.00260609 4.45236e-23)
(0.0227388 -0.00257154 5.65636e-21)
(0.0227375 -0.00253728 -3.09561e-28)
(0.0227218 -0.00250211 -5.63766e-21)
(0.022721 -0.00246846 -5.61728e-21)
(0.0227083 -0.00243375 -5.5971e-21)
(0.0226804 -0.00239744 5.57687e-21)
(0.022664 -0.00236332 0)
(0.022654 -0.00232921 -2.15914e-23)
(-0.0557219 -1.09002e-05 0)
(-0.055356 -1.70897e-05 0)
(-0.0361078 0.000101447 0)
(-0.0298412 0.000160112 0)
(-0.0362584 -8.42291e-05 0)
(-0.0329612 -7.26144e-05 0)
(-0.0297619 -6.19082e-05 0)
(-0.0270842 -4.29112e-05 0)
(-0.0253672 -1.70971e-05 0)
(0.0374217 -0.010587 -5.73156e-23)
(0.0373098 -0.0104353 -2.92311e-20)
(0.0371594 -0.0102753 2.91156e-20)
(0.0370328 -0.0101258 -2.9002e-20)
(0.0369021 -0.00997609 -2.89442e-20)
(0.0367462 -0.00982309 -1.17549e-38)
(0.0366041 -0.00967574 9.73456e-39)
(0.0364367 -0.00952478 -5.57639e-23)
(0.0362783 -0.00937842 2.85515e-20)
(0.0361088 -0.00923165 -2.83855e-20)
(-0.054812 -1.85902e-05 0)
(-0.0540864 -2.07471e-05 0)
(-0.0533207 -1.6277e-05 0)
(-0.0526363 -1.21798e-05 0)
(-0.0521271 -3.85104e-06 0)
(-0.0373259 -3.09686e-05 0)
(-0.0361322 -1.6405e-05 0)
(-0.0356443 1.46929e-05 0)
(-0.0362918 4.9022e-05 0)
(0.00818837 -0.000811178 0)
(0.0226234 -0.00229372 -5.47452e-21)
(0.0226076 -0.00225911 -7.62869e-26)
(0.0225316 -0.00221893 -4.28007e-23)
(0.0224777 -0.00218227 2.1364e-23)
(0.0224273 -0.00214556 5.46201e-21)
(0.0223677 -0.00210848 -1.06447e-23)
(0.0223113 -0.00207187 -1.05722e-23)
(0.0222533 -0.00203575 1.05011e-23)
(0.0222044 -0.00200048 -1.05012e-23)
(0.0221487 -0.00196495 1.94466e-27)
(-0.0389947 -2.62702e-05 0)
(-0.0378284 -2.72185e-05 0)
(-0.0366578 -2.71484e-05 0)
(-0.0354006 -2.92453e-05 0)
(-0.0341112 -2.69179e-05 0)
(-0.0329765 -2.73352e-05 0)
(-0.0316189 -3.00528e-05 0)
(-0.0303809 -2.80234e-05 0)
(-0.0290366 -3.17088e-05 0)
(0.0159377 4.43648e-07 0)
(0.01592 3.07992e-07 0)
(0.0159112 2.04552e-07 0)
(0.0159037 1.57762e-07 0)
(0.0158975 1.29259e-07 0)
(0.0158948 5.10011e-08 0)
(0.0158924 7.07317e-08 0)
(0.0158912 6.42121e-08 0)
(0.0158853 1.17063e-07 0)
(0.015886 -2.51348e-08 0)
(0.0158841 1.12513e-07 0)
(0.0158825 -4.80898e-08 0)
(0.0158849 1.51862e-08 0)
(-0.0489115 -7.4542e-06 0)
(-0.0485845 -1.08906e-05 0)
(-0.0481747 -1.03828e-05 0)
(-0.0478084 -1.42962e-05 0)
(-0.0472365 -1.38858e-05 0)
(-0.113431 0.0576619 2.34916e-23)
(-0.230363 0.11122 -1.19386e-39)
(-0.258158 0.123377 -1.88079e-37)
(-0.211252 0.095553 -1.35248e-19)
(0.0636278 -0.0425843 5.36025e-36)
(0.261966 -0.131576 -2.95428e-35)
(0.11843 -0.0532713 -7.52316e-37)
(-0.0984576 0.0653056 -6.99884e-19)
(0.02671 -0.00446868 -2.93874e-39)
(0.0264452 -0.00437572 1.24811e-20)
(0.0261765 -0.00428321 -2.42912e-23)
(0.0259155 -0.0041938 1.24229e-20)
(0.0256664 -0.00410732 2.42352e-23)
(0.0254206 -0.00402285 1.2341e-20)
(0.0251872 -0.00394139 2.41228e-23)
(0.02496 -0.00386216 2.40095e-23)
(0.0247492 -0.00378657 -2.401e-23)
(0.0245427 -0.00371261 -1.2249e-20)
(0.0295558 -0.00551682 2.29221e-37)
(0.0292758 -0.00540555 -1.28026e-20)
(0.0289893 -0.00529462 0)
(0.0287048 -0.00518588 1.27327e-20)
(0.0284142 -0.0050775 2.47698e-23)
(0.0281242 -0.00497114 1.26411e-20)
(0.0278343 -0.00486615 -2.52916e-20)
(0.0275462 -0.00476344 2.46442e-23)
(0.027267 -0.00466352 1.25464e-20)
(0.0269838 -0.00456452 2.45232e-23)
(-0.057673 0.0101187 3.54323e-19)
(-0.0537459 0.00950295 3.53245e-19)
(-0.0486182 0.00865323 -3.55057e-19)
(-0.0421084 0.00751306 1.38649e-21)
(-0.0337197 0.00602553 -1.38924e-21)
(-0.0244551 0.00439307 -3.55778e-19)
(-0.0169213 0.00315735 -3.57437e-19)
(-0.0525395 -6.35761e-06 0)
(-0.0522326 -6.79954e-06 0)
(-0.0519815 -4.96648e-06 0)
(-0.0518043 -6.16537e-06 0)
(-0.0515751 -6.37303e-06 0)
(0.203781 0.00030339 0)
(0.191492 0.000284509 0)
(0.178957 0.000282441 0)
(0.166988 0.00026369 0)
(0.155142 0.000263333 0)
(0.016821 6.27356e-07 0)
(0.0167945 6.48524e-07 0)
(0.0167629 5.31556e-07 0)
(0.0167505 6.46435e-07 0)
(0.0166941 1.29032e-06 0)
(0.0166551 4.83024e-07 0)
(0.016638 7.55472e-07 0)
(0.0165995 4.99312e-07 0)
(0.0165869 6.61511e-07 0)
(0.0165424 9.10963e-07 0)
(0.0165088 7.70233e-07 0)
(0.0164739 7.5392e-07 0)
(0.0180611 -1.24005e-07 0)
(0.0180568 -1.06205e-07 0)
(0.0180637 5.33049e-08 0)
(0.0180562 2.26033e-07 0)
(0.018041 3.30137e-07 0)
(0.018035 1.08693e-08 0)
(0.0180367 4.78506e-08 0)
(0.0180359 -1.05641e-07 0)
(0.0180432 -1.03217e-07 0)
(0.0180484 -2.12764e-07 0)
(0.0180597 -1.71518e-07 0)
(-0.446129 0.0988225 6.27018e-19)
(-0.410612 0.0917235 -3.11112e-19)
(-0.370307 0.0834213 3.10336e-19)
(-0.329436 0.074909 -3.09996e-19)
(-0.289935 0.0665031 1.19971e-21)
(-0.250028 0.0578309 -7.34684e-40)
(-0.211881 0.0495024 3.01818e-24)
(-0.179245 0.042458 9.84477e-38)
(2.80905 -1.54037 -2.67472e-21)
(6.33925 -4.7965 1.70322e-18)
(5.56011 -8.77028 1.02446e-20)
(1.57383 -9.09328 6.60165e-19)
(-1.50494 -7.10376 1.34782e-21)
(-2.99914 -4.6304 -4.88112e-19)
(-2.64375 -1.8958 -2.41931e-19)
(-1.57527 -0.421357 -4.32591e-20)
(-0.33915 -0.0568581 3.64403e-37)
(0.0164938 -6.81701e-05 0)
(0.0189019 -5.5565e-05 0)
(0.0213385 -5.76818e-05 0)
(0.0237347 -6.28432e-05 0)
(0.0263362 -6.7885e-05 0)
(0.0286999 -7.0195e-05 0)
(-0.100355 0.0141511 -1.35483e-24)
(-0.106362 0.0150015 -3.56158e-19)
(-0.106375 0.0150669 7.10763e-19)
(-0.103793 0.0148253 3.55234e-19)
(-0.100989 0.0146096 9.40395e-38)
(-0.0989503 0.0144743 0)
(-0.0971068 0.0143741 3.54575e-19)
(0.0141496 -3.52557e-05 0)
(0.01579 -3.879e-05 0)
(0.0172611 -5.00357e-05 0)
(0.0195318 -6.88795e-05 0)
(0.0218256 -7.15707e-05 0)
(-0.0276181 -2.94571e-05 0)
(-0.0262719 -3.20617e-05 0)
(-0.0247907 -3.07694e-05 0)
(-0.0233775 -3.23623e-05 0)
(-0.0218862 -2.99016e-05 0)
(0.0342234 -0.00784318 1.37207e-20)
(0.0340068 -0.00770929 -1.36708e-20)
(0.0337896 -0.007578 2.71374e-20)
(0.0335793 -0.00744995 2.35099e-38)
(0.0333528 -0.0073201 -1.34722e-20)
(0.0331284 -0.00719284 0)
(0.0328966 -0.00706583 1.33782e-20)
(0.0326604 -0.00693999 -1.32803e-20)
(0.0324212 -0.00681511 1.31832e-20)
(0.0321714 -0.00669013 1.32943e-20)
(0.0159773 -3.93392e-07 0)
(0.0160013 -5.62015e-07 0)
(0.0160274 -5.48693e-07 0)
(0.0160507 -4.61862e-07 0)
(0.0160684 -3.27559e-07 0)
(0.0160817 -2.96103e-07 0)
(0.0160963 -2.59211e-07 0)
(0.0161056 -1.29898e-07 0)
(0.0161109 -8.98492e-08 0)
(0.0161166 -1.91453e-07 0)
(0.016134 -4.13315e-07 0)
(0.0161536 -3.21869e-07 0)
(0.0161676 -3.35612e-07 0)
(-0.146084 -0.047625 2.33333e-20)
(-0.0336165 -0.0203399 -8.59316e-23)
(-0.0138576 -0.0118069 3.1947e-20)
(-0.00281353 -0.0041921 -4.83626e-24)
(-0.0912852 0.0103658 -9.18946e-25)
(-0.112451 0.0128745 1.80951e-19)
(-0.132548 0.0151972 1.81473e-19)
(-0.150463 0.0172409 -3.58616e-19)
(-0.163291 0.0185534 -1.39473e-21)
(-0.164358 0.018569 -1.76815e-19)
(-0.156063 0.0178086 -4.4216e-36)
(0.0478355 -0.000142518 0)
(0.0527917 -0.000131298 0)
(0.0582075 -0.000141272 0)
(0.0641034 -0.000153556 0)
(0.0706283 -0.000169068 0)
(0.0177311 4.53207e-07 0)
(0.0177169 1.43042e-07 0)
(0.0177088 3.70792e-07 0)
(0.0176959 4.07616e-08 0)
(0.0176965 1.21924e-07 0)
(0.0176928 3.31232e-08 0)
(0.0176848 1.76629e-07 0)
(0.0176879 6.14158e-08 0)
(0.0176638 8.21041e-07 0)
(0.0176341 3.30661e-07 0)
(0.0176225 5.47223e-07 0)
(0.0175982 3.23627e-07 0)
(0.187453 -0.0113299 3.76123e-22)
(0.176783 -0.0107897 0)
(0.166623 -0.0103994 -3.88279e-19)
(0.158287 -0.0101232 -1.95338e-19)
(0.157365 -0.0105155 -3.81958e-22)
(0.164433 -0.011315 3.81891e-22)
(0.0837042 -0.00181976 4.25156e-20)
(0.0870671 -0.00199612 -8.34246e-23)
(0.0905373 -0.00218321 8.56413e-20)
(0.0938727 -0.00237847 0)
(0.097478 -0.0025932 -4.30614e-20)
(0.101156 -0.00281606 0)
(-0.0387944 1.11899e-05 0)
(-0.0393775 -4.85864e-06 0)
(-0.0392607 -2.39012e-05 0)
(-0.0384976 -3.39145e-05 0)
(0.0834376 0.000184096 0)
(0.073871 0.00017617 0)
(0.0644379 0.000169351 0)
(0.0553833 0.000154515 0)
(0.046966 0.000141402 0)
(0.0391168 0.000125639 0)
(-0.0404101 1.89901e-05 0)
(-0.041154 3.27938e-05 0)
(-0.0425736 3.76612e-05 0)
(-0.0442437 3.59204e-05 0)
(-0.0459126 2.95424e-05 0)
(0.515463 -0.491851 1.75834e-18)
(0.133751 -0.10838 5.72187e-19)
(-0.590596 0.641758 0)
(-0.536888 0.565145 -7.59677e-22)
(-0.0594924 0.0424153 3.32142e-21)
(0.372906 -0.481962 1.83124e-18)
(0.843541 -1.09495 -1.9616e-18)
(1.19739 -1.50798 2.21837e-18)
(0.0164465 5.29778e-07 0)
(0.0164252 5.03626e-07 0)
(0.0164054 3.52263e-07 0)
(0.0163924 2.70763e-07 0)
(0.0163834 3.05471e-07 0)
(0.0163607 4.95155e-07 0)
(0.0163471 1.31484e-07 0)
(0.0163418 5.20914e-07 0)
(0.0163026 6.91124e-07 0)
(0.0162849 3.89496e-07 0)
(0.0162643 5.40562e-07 0)
(0.0162416 4.08468e-07 0)
(0.0162254 4.59931e-07 0)
(0.505788 -0.598937 8.42398e-23)
(-1.43977 2.24603 9.18707e-19)
(-1.41254 2.17913 -1.39509e-20)
(-0.68222 1.03516 -8.76882e-19)
(0.0687957 -0.158458 -7.6117e-21)
(0.243561 -0.614937 -6.538e-22)
(1.00379 -2.06885 -1.28231e-18)
(0.324313 -0.637865 5.10215e-22)
(0.185329 -0.00391549 0)
(0.0231115 -0.00307633 1.9441e-37)
(0.0230499 -0.00303166 2.30936e-23)
(0.0230125 -0.0029907 1.18056e-20)
(0.0229901 -0.00295171 1.17434e-20)
(0.0229791 -0.00291442 2.28642e-23)
(0.0229729 -0.00287793 1.16861e-20)
(0.0229805 -0.00284271 -1.16683e-20)
(0.0229176 -0.00279794 -8.28724e-37)
(0.0228558 -0.00275648 -5.80402e-21)
(0.0228333 -0.00271874 2.25434e-23)
(0.0227927 -0.00268003 2.23824e-23)
(-0.104931 0.0273743 5.98874e-19)
(-0.099624 0.0262091 -5.98969e-19)
(-0.0945065 0.0251829 -5.9826e-19)
(-0.0901672 0.0242793 -1.19515e-18)
(-0.0852792 0.0231975 -3.76158e-37)
(-0.0798607 0.021873 -5.96614e-19)
(-0.0715135 0.0195106 -5.60709e-24)
(-0.060842 0.016853 1.18734e-18)
(-0.0306126 7.14267e-05 0)
(-0.0335586 5.80168e-05 0)
(-0.0359019 4.07926e-05 0)
(-0.0376701 2.68577e-05 0)
(0.141594 -0.0108339 3.84191e-22)
(0.125126 -0.00959461 -1.96484e-19)
(0.10851 -0.00842618 -3.9286e-19)
(0.090643 -0.00709886 1.77095e-25)
(0.072637 -0.00572449 3.8228e-22)
(0.0556609 -0.00439249 2.35099e-38)
(0.0404232 -0.00321097 -1.94296e-19)
(-0.0503521 -5.993e-06 0)
(-0.0501476 -7.65849e-06 0)
(-0.0498347 -7.42097e-06 0)
(-0.0496129 -7.8481e-06 0)
(-0.0491977 -8.7775e-06 0)
(0.0162035 4.52319e-07 0)
(0.0161839 5.0227e-07 0)
(0.0161616 2.51878e-07 0)
(0.0161622 3.81535e-07 0)
(0.0161191 8.94627e-07 0)
(0.0160992 1.83215e-07 0)
(0.0160897 5.08807e-07 0)
(0.0160661 2.73859e-07 0)
(0.0160554 6.25087e-07 0)
(0.0160169 7.51452e-07 0)
(0.0159867 7.5766e-07 0)
(0.0159557 5.5208e-07 0)
(0.0359389 -0.00908729 -2.82209e-20)
(0.0357678 -0.00894495 -2.12552e-25)
(0.0355902 -0.00880307 2.80051e-20)
(0.035409 -0.00866294 1.39768e-20)
(0.0352221 -0.00852318 0)
(0.0350287 -0.00838449 -1.38714e-20)
(0.0348349 -0.00824759 -1.38195e-20)
(0.0346284 -0.00811003 -1.37146e-20)
(0.034428 -0.00797614 -1.37711e-20)
(0.0282986 -1.05932e-05 0)
(0.0288016 -1.12279e-05 0)
(0.0293333 -1.18896e-05 0)
(0.0298983 -1.26619e-05 0)
(0.0304991 -1.34559e-05 0)
(0.0311385 -1.43733e-05 0)
(0.0318222 -1.53559e-05 0)
(0.0325525 -1.64844e-05 0)
(0.0333398 -1.77847e-05 0)
(0.0341883 -1.92191e-05 0)
(0.0351079 -2.08937e-05 0)
(0.0361082 -2.27557e-05 0)
(0.0371991 -2.4962e-05 0)
(0.0384012 -2.75613e-05 0)
(0.0174413 -1.4728e-06 0)
(0.0175134 -1.55437e-06 0)
(0.0175818 -1.40314e-06 0)
(0.0176491 -1.57239e-06 0)
(0.017726 -1.57833e-06 0)
(0.0177985 -1.65281e-06 0)
(0.0178799 -1.6764e-06 0)
(0.0179546 -1.69003e-06 0)
(0.0180404 -1.89972e-06 0)
(0.0181286 -1.87672e-06 0)
(0.0182181 -2.00733e-06 0)
(0.0183125 -2.0316e-06 0)
(0.0184092 -2.13325e-06 0)
(0.0185074 -2.07021e-06 0)
(0.0158861 -1.04974e-08 0)
(0.0158822 1.69539e-07 0)
(0.0158794 -5.51602e-08 0)
(0.0158836 -1.35101e-08 0)
(0.0158873 -2.3067e-07 0)
(0.0159019 -2.92603e-07 0)
(0.0159182 -4.28799e-07 0)
(0.015937 -2.38403e-07 0)
(0.0159419 -1.4628e-07 0)
(0.0159505 -3.92048e-08 0)
(0.0159463 6.49521e-08 0)
(0.01595 -1.90612e-07 0)
(0.0159639 -2.75416e-07 0)
(-0.073604 0.0120586 -6.90418e-22)
(-0.0724129 0.0119745 2.72895e-25)
(-0.0705147 0.0117705 3.53996e-19)
(-0.0688577 0.0116139 0)
(-0.066153 0.0112831 -7.66988e-21)
(-0.0654235 0.0112816 4.13399e-19)
(-0.0614292 0.010655 -7.06791e-19)
(0.0180646 -1.67447e-07 0)
(0.0180734 -1.98888e-07 0)
(0.0180806 2.05797e-07 0)
(0.0180505 5.54058e-07 0)
(0.0180452 -3.73641e-08 0)
(0.0180433 3.54171e-07 0)
(0.0180252 1.14599e-07 0)
(0.0180283 1.09176e-07 0)
(0.01802 8.04272e-08 0)
(0.0180186 1.08191e-07 0)
(0.0180127 -7.09046e-09 0)
(0.0172915 3.44486e-07 0)
(0.0172843 3.54499e-07 0)
(0.0172586 4.96138e-07 0)
(0.0172462 2.59757e-07 0)
(0.0172303 4.57262e-07 0)
(0.0172127 1.93305e-07 0)
(0.0172092 1.98156e-07 0)
(0.0171975 1.91158e-07 0)
(0.0171901 2.84655e-07 0)
(0.0171726 3.2991e-07 0)
(0.0171614 3.92473e-07 0)
(0.0171348 5.80764e-07 0)
(0.0171157 3.62573e-07 0)
(0.334385 -7.09682e-05 0)
(0.33848 -6.90397e-05 0)
(0.342053 -1.73996e-05 0)
(0.343067 3.85558e-05 0)
(0.342455 6.48737e-05 0)
(0.316132 0.000216333 0)
(0.309056 0.000235206 0)
(0.30105 0.000258265 0)
(0.292288 0.000274356 0)
(0.282661 0.000292623 0)
(0.0213557 -0.00154874 -1.00512e-23)
(0.0212781 -0.00151505 2.95817e-26)
(0.0211973 -0.00148109 -1.02372e-20)
(0.021099 -0.00144655 -5.11876e-21)
(0.0210147 -0.00141355 2.86344e-26)
(0.0209286 -0.00138041 9.93529e-24)
(0.0208374 -0.00134744 -9.87908e-24)
(0.02076 -0.00131581 9.8792e-24)
(0.0206799 -0.001284 -3.62432e-40)
(0.0206026 -0.00125276 9.79701e-24)
(0.0170979 5.5714e-07 0)
(0.0170709 4.26546e-07 0)
(0.017059 3.77821e-07 0)
(0.0170365 6.08158e-07 0)
(0.0170055 6.28605e-07 0)
(0.0169837 4.29039e-07 0)
(0.0169655 6.50813e-07 0)
(0.0169256 7.80295e-07 0)
(0.0169026 4.49402e-07 0)
(0.0168818 5.44018e-07 0)
(0.0168599 3.26839e-07 0)
(0.0168493 4.35262e-07 0)
(-0.0188595 0.00677705 -5.97844e-19)
(-0.0073317 0.00237826 -3.0845e-35)
(0.00486185 -0.00234605 1.91018e-38)
(0.017441 -0.00719602 -1.17961e-21)
(0.0287933 -0.0117395 6.06189e-19)
(0.0406071 -0.0165505 -6.06414e-19)
(0.0510796 -0.0210527 5.80303e-24)
(0.062157 -0.0259315 -1.19469e-21)
(-0.095933 0.0143282 3.38542e-35)
(-0.0934426 0.0140923 -3.54115e-19)
(-0.0906027 0.0138089 0)
(-0.0872157 0.0134341 3.54591e-19)
(-0.0834181 0.0130022 -6.91198e-22)
(-0.0800373 0.0126289 -3.53819e-19)
(-0.0770483 0.0123159 3.53772e-19)
(-0.0748862 0.0121239 9.40395e-38)
(0.158126 -0.00716538 9.14307e-20)
(0.163298 -0.00761838 1.79748e-22)
(0.16895 -0.00809542 -9.2405e-20)
(0.174527 -0.00858874 -9.9917e-36)
(0.180051 -0.00906939 9.30265e-20)
(0.184941 -0.00954092 -3.65839e-22)
(0.0221015 -0.00193018 -2.57874e-37)
(0.0220319 -0.0018938 -5.30482e-21)
(0.0219774 -0.0018594 -1.03647e-23)
(0.0219196 -0.00182453 -1.02988e-23)
(0.0218604 -0.00178999 2.05657e-23)
(0.021792 -0.00175467 -3.19866e-26)
(0.0217185 -0.00171976 -5.25256e-21)
(0.0216528 -0.00168537 1.02033e-23)
(0.0215755 -0.0016506 -8.55218e-40)
(0.021507 -0.00161662 -1.01111e-23)
(0.0214284 -0.00158237 5.17925e-21)