# Wall shear stress
# Time        	patch         	min           	max           
500           	wall	(-2.609368e+00 -7.644825e+00 -2.611157e-18)	(4.915793e+00 4.273291e+00 1.925878e-18)
