/*--------------------------------*- C++ -*----------------------------------*\
| =========                 |                                                 |
| \\      /  F ield         | OpenFOAM: The Open Source CFD Toolbox           |
|  \\    /   O peration     | Version:  2412                                  |
|   \\  /    A nd           | Website:  www.openfoam.com                      |
|    \\/     M anipulation  |                                                 |
\*---------------------------------------------------------------------------*/
FoamFile
{
    version     2.0;
    format      ascii;
    arch        "LSB;label=32;scalar=64";
    class       volScalarField;
    location    "500";
    object      p;
}
// * * * * * * * * * * * * * * * * * * * * * * * * * * * * * * * * * * * * * //

dimensions      [0 2 -2 0 0 0 0];

internalField   nonuniform List<scalar> 
360650
(
-4.05986
-4.05986
-4.05987
-4.05988
-4.05989
-4.0599
-4.05992
-4.05995
-4.05998
-4.06002
-4.06008
-4.06014
-4.06022
-4.06032
-4.06044
-4.06058
-4.06075
-4.06095
-4.06117
-4.06143
-4.06173
-4.06207
-4.06244
-4.06287
-4.06333
-4.06384
-4.06442
-4.06504
-4.0491
-4.04911
-4.04912
-4.04912
-4.04913
-4.04915
-4.04917
-4.04919
-4.04922
-4.04927
-4.04932
-4.04938
-4.04946
-4.04956
-4.04967
-4.04981
-4.04997
-4.05016
-4.05038
-4.05063
-4.05092
-4.05124
-4.0516
-4.052
-4.05245
-4.05293
-4.05346
-4.05394
-4.03846
-4.03847
-4.03848
-4.03848
-4.03849
-4.03851
-4.03853
-4.03855
-4.03858
-4.03862
-4.03868
-4.03874
-4.03882
-4.03891
-4.03903
-4.03916
-4.03933
-4.03951
-4.03973
-4.03998
-4.04027
-4.04059
-4.04095
-4.04135
-4.04179
-4.04228
-4.04279
-4.04337
-4.02795
-4.02795
-4.02796
-4.02797
-4.02798
-4.02799
-4.02801
-4.02803
-4.02807
-4.02811
-4.02816
-4.02822
-4.0283
-4.02839
-4.02851
-4.02864
-4.0288
-4.02899
-4.02921
-4.02946
-4.02975
-4.03007
-4.03043
-4.03084
-4.03128
-4.03177
-4.03231
-4.0329
-4.01753
-4.01753
-4.01754
-4.01755
-4.01756
-4.01757
-4.01759
-4.01762
-4.01765
-4.01769
-4.01774
-4.0178
-4.01787
-4.01797
-4.01808
-4.01821
-4.01837
-4.01855
-4.01876
-4.01901
-4.01929
-4.0196
-4.01995
-4.02035
-4.02078
-4.02126
-4.02178
-4.02234
-4.00722
-4.00723
-4.00723
-4.00724
-4.00725
-4.00727
-4.00728
-4.00731
-4.00734
-4.00738
-4.00743
-4.00749
-4.00756
-4.00765
-4.00776
-4.0079
-4.00805
-4.00823
-4.00844
-4.00868
-4.00896
-4.00927
-4.00961
-4.01
-4.01042
-4.01089
-4.01138
-4.01193
-3.99703
-3.99704
-3.99705
-3.99706
-3.99707
-3.99708
-3.9971
-3.99712
-3.99715
-3.99719
-3.99724
-3.9973
-3.99738
-3.99747
-3.99759
-3.99772
-3.99788
-3.99807
-3.99828
-3.99853
-3.99882
-3.99914
-3.9995
-3.99991
-4.00036
-4.00086
-4.00141
-4.00205
-3.9869
-3.9869
-3.98691
-3.98692
-3.98693
-3.98694
-3.98696
-3.98698
-3.98701
-3.98705
-3.9871
-3.98716
-3.98723
-3.98732
-3.98743
-3.98756
-3.98772
-3.9879
-3.98811
-3.98835
-3.98862
-3.98893
-3.98928
-3.98967
-3.9901
-3.99058
-3.99111
-3.99161
-3.97691
-3.97692
-3.97692
-3.97693
-3.97694
-3.97696
-3.97697
-3.977
-3.97703
-3.97706
-3.97711
-3.97717
-3.97724
-3.97733
-3.97744
-3.97757
-3.97772
-3.9779
-3.9781
-3.97834
-3.97861
-3.97891
-3.97925
-3.97963
-3.98005
-3.98051
-3.981
-3.98152
-3.96699
-3.967
-3.96701
-3.96702
-3.96703
-3.96704
-3.96706
-3.96708
-3.96711
-3.96715
-3.96719
-3.96725
-3.96732
-3.96741
-3.96752
-3.96764
-3.96779
-3.96797
-3.96817
-3.9684
-3.96867
-3.96897
-3.96931
-3.96968
-3.9701
-3.97056
-3.97105
-3.97163
-3.95722
-3.95723
-3.95724
-3.95724
-3.95725
-3.95727
-3.95728
-3.95731
-3.95734
-3.95737
-3.95742
-3.95748
-3.95755
-3.95764
-3.95774
-3.95787
-3.95801
-3.95819
-3.95839
-3.95862
-3.95888
-3.95918
-3.95951
-3.95988
-3.9603
-3.96075
-3.96124
-3.9618
-120.693
-120.693
-120.693
-120.693
-120.693
-120.693
-120.693
-120.693
-120.693
-120.693
-120.693
-120.693
-120.693
-120.693
-120.693
-120.693
-120.693
-120.693
-120.693
-120.693
-120.693
-120.693
-120.693
-120.693
-120.693
-120.693
-120.692
-120.692
-120.704
-120.705
-120.705
-120.705
-120.705
-120.705
-120.705
-120.705
-120.705
-120.705
-120.705
-120.705
-120.705
-120.705
-120.705
-120.705
-120.705
-120.705
-120.705
-120.705
-120.705
-120.706
-120.706
-120.706
-120.706
-120.707
-120.707
-120.708
-120.716
-120.716
-120.716
-120.716
-120.716
-120.716
-120.716
-120.716
-120.716
-120.716
-120.716
-120.716
-120.716
-120.716
-120.716
-120.716
-120.716
-120.717
-120.717
-120.717
-120.717
-120.717
-120.717
-120.717
-120.717
-120.717
-120.717
-120.718
-120.73
-120.73
-120.73
-120.73
-120.73
-120.73
-120.73
-120.73
-120.73
-120.73
-120.73
-120.73
-120.73
-120.73
-120.73
-120.73
-120.73
-120.73
-120.73
-120.73
-120.73
-120.73
-120.731
-120.731
-120.731
-120.731
-120.731
-120.731
-120.745
-120.745
-120.745
-120.745
-120.745
-120.745
-120.745
-120.745
-120.745
-120.745
-120.745
-120.745
-120.745
-120.745
-120.745
-120.745
-120.745
-120.745
-120.745
-120.745
-120.745
-120.745
-120.745
-120.745
-120.746
-120.746
-120.746
-120.746
-120.761
-120.761
-120.761
-120.761
-120.761
-120.761
-120.761
-120.761
-120.761
-120.761
-120.761
-120.761
-120.761
-120.761
-120.761
-120.761
-120.761
-120.761
-120.761
-120.761
-120.761
-120.761
-120.761
-120.761
-120.761
-120.761
-120.761
-120.761
-123.833
-123.833
-123.833
-123.833
-123.833
-123.833
-123.833
-123.833
-123.833
-123.833
-123.833
-123.833
-123.833
-123.833
-123.833
-123.833
-123.833
-123.833
-123.833
-123.833
-123.833
-123.833
-123.833
-123.833
-123.833
-123.833
-123.833
-123.833
-123.793
-123.793
-123.793
-123.793
-123.793
-123.793
-123.793
-123.793
-123.793
-123.793
-123.793
-123.793
-123.793
-123.793
-123.793
-123.793
-123.793
-123.793
-123.793
-123.793
-123.793
-123.793
-123.793
-123.793
-123.793
-123.793
-123.793
-123.793
-123.754
-123.754
-123.754
-123.754
-123.754
-123.754
-123.754
-123.754
-123.754
-123.754
-123.754
-123.754
-123.754
-123.754
-123.754
-123.754
-123.754
-123.754
-123.754
-123.754
-123.754
-123.754
-123.754
-123.754
-123.754
-123.754
-123.754
-123.753
-123.715
-123.715
-123.715
-123.715
-123.715
-123.715
-123.715
-123.715
-123.715
-123.715
-123.715
-123.715
-123.715
-123.715
-123.715
-123.715
-123.715
-123.715
-123.715
-123.715
-123.715
-123.715
-123.715
-123.715
-123.715
-123.715
-123.715
-123.715
-123.676
-123.676
-123.676
-123.676
-123.676
-123.676
-123.676
-123.676
-123.676
-123.676
-123.676
-123.676
-123.676
-123.676
-123.676
-123.676
-123.676
-123.676
-123.676
-123.676
-123.676
-123.676
-123.676
-123.676
-123.676
-123.676
-123.676
-123.677
-123.424
-123.424
-123.424
-123.424
-123.424
-123.424
-123.424
-123.424
-123.424
-123.424
-123.424
-123.424
-123.424
-123.424
-123.424
-123.424
-123.424
-123.424
-123.424
-123.425
-123.425
-123.425
-123.425
-123.426
-123.426
-123.426
-123.427
-123.427
-123.55
-123.55
-123.55
-123.55
-123.55
-123.55
-123.55
-123.55
-123.55
-123.55
-123.55
-123.55
-123.55
-123.55
-123.55
-123.55
-123.55
-123.551
-123.551
-123.551
-123.551
-123.552
-123.552
-123.553
-123.554
-123.555
-123.555
-123.557
-123.679
-123.679
-123.679
-123.679
-123.679
-123.679
-123.679
-123.679
-123.679
-123.679
-123.679
-123.679
-123.679
-123.679
-123.68
-123.68
-123.68
-123.68
-123.68
-123.68
-123.681
-123.681
-123.682
-123.683
-123.684
-123.685
-123.686
-123.688
-123.812
-123.813
-123.813
-123.813
-123.813
-123.813
-123.813
-123.813
-123.813
-123.813
-123.813
-123.813
-123.813
-123.813
-123.813
-123.813
-123.813
-123.813
-123.813
-123.814
-123.814
-123.814
-123.815
-123.815
-123.816
-123.817
-123.818
-123.819
-123.95
-123.95
-123.95
-123.95
-123.95
-123.95
-123.95
-123.951
-123.951
-123.951
-123.951
-123.951
-123.951
-123.951
-123.951
-123.951
-123.951
-123.951
-123.951
-123.951
-123.952
-123.952
-123.953
-123.953
-123.954
-123.955
-123.956
-123.957
-124.092
-124.092
-124.092
-124.092
-124.092
-124.092
-124.092
-124.092
-124.092
-124.092
-124.092
-124.092
-124.092
-124.092
-124.092
-124.092
-124.092
-124.092
-124.093
-124.093
-124.093
-124.093
-124.094
-124.094
-124.095
-124.095
-124.096
-124.096
-120.647
-120.647
-120.647
-120.647
-120.647
-120.647
-120.647
-120.647
-120.647
-120.647
-120.647
-120.647
-120.647
-120.647
-120.647
-120.647
-120.647
-120.647
-120.647
-120.647
-120.646
-120.646
-120.646
-120.646
-120.646
-120.646
-120.645
-120.645
-120.645
-120.645
-120.645
-120.645
-120.645
-120.645
-120.645
-120.645
-120.645
-120.645
-120.645
-120.645
-120.645
-120.645
-120.645
-120.645
-120.645
-120.645
-120.645
-120.645
-120.645
-120.644
-120.644
-120.644
-120.644
-120.644
-120.643
-120.643
-120.645
-120.645
-120.645
-120.645
-120.645
-120.645
-120.645
-120.645
-120.645
-120.645
-120.645
-120.645
-120.645
-120.645
-120.645
-120.645
-120.645
-120.645
-120.645
-120.645
-120.644
-120.644
-120.644
-120.644
-120.643
-120.643
-120.643
-120.642
-120.646
-120.646
-120.646
-120.646
-120.646
-120.646
-120.646
-120.646
-120.646
-120.646
-120.646
-120.646
-120.646
-120.646
-120.646
-120.646
-120.646
-120.646
-120.646
-120.646
-120.646
-120.645
-120.645
-120.645
-120.645
-120.644
-120.644
-120.644
-120.649
-120.649
-120.649
-120.649
-120.649
-120.649
-120.649
-120.649
-120.649
-120.649
-120.649
-120.648
-120.648
-120.648
-120.648
-120.648
-120.648
-120.648
-120.648
-120.648
-120.648
-120.648
-120.647
-120.647
-120.647
-120.647
-120.647
-120.646
-120.652
-120.652
-120.652
-120.652
-120.652
-120.652
-120.652
-120.652
-120.652
-120.652
-120.652
-120.652
-120.652
-120.652
-120.652
-120.651
-120.651
-120.651
-120.651
-120.651
-120.651
-120.651
-120.651
-120.651
-120.651
-120.65
-120.65
-120.65
-130.352
-130.352
-130.352
-130.352
-130.352
-130.352
-130.352
-130.352
-130.351
-130.351
-130.351
-130.351
-130.35
-130.35
-130.35
-130.349
-130.349
-130.348
-130.347
-130.347
-130.346
-130.344
-130.343
-130.342
-130.34
-130.338
-130.336
-130.335
-130.396
-130.396
-130.396
-130.396
-130.396
-130.396
-130.396
-130.396
-130.396
-130.396
-130.396
-130.395
-130.395
-130.395
-130.395
-130.394
-130.394
-130.393
-130.393
-130.392
-130.392
-130.391
-130.391
-130.391
-130.391
-130.391
-130.392
-130.395
-130.446
-130.446
-130.446
-130.446
-130.446
-130.446
-130.446
-130.446
-130.445
-130.445
-130.445
-130.445
-130.445
-130.444
-130.444
-130.444
-130.443
-130.443
-130.442
-130.441
-130.44
-130.439
-130.438
-130.436
-130.435
-130.434
-130.433
-130.433
-130.502
-130.502
-130.502
-130.502
-130.502
-130.502
-130.502
-130.502
-130.502
-130.502
-130.502
-130.502
-130.502
-130.501
-130.501
-130.501
-130.5
-130.499
-130.499
-130.498
-130.496
-130.495
-130.493
-130.491
-130.488
-130.485
-130.482
-130.479
-130.561
-130.561
-130.561
-130.561
-130.561
-130.561
-130.561
-130.561
-130.561
-130.561
-130.561
-130.56
-130.56
-130.56
-130.56
-130.559
-130.559
-130.558
-130.557
-130.555
-130.554
-130.552
-130.549
-130.546
-130.542
-130.537
-130.532
-130.526
-130.623
-130.623
-130.623
-130.623
-130.623
-130.623
-130.623
-130.623
-130.623
-130.623
-130.623
-130.623
-130.622
-130.622
-130.622
-130.621
-130.621
-130.62
-130.619
-130.617
-130.615
-130.612
-130.609
-130.605
-130.6
-130.593
-130.586
-130.577
-130.685
-130.685
-130.685
-130.685
-130.685
-130.685
-130.685
-130.685
-130.685
-130.685
-130.685
-130.685
-130.685
-130.684
-130.684
-130.683
-130.683
-130.682
-130.681
-130.679
-130.677
-130.674
-130.67
-130.665
-130.659
-130.652
-130.643
-130.633
-3.69756
-3.69756
-3.69757
-3.69757
-3.69758
-3.69758
-3.69759
-3.69761
-3.69762
-3.69764
-3.69767
-3.6977
-3.69774
-3.69779
-3.69784
-3.69791
-3.698
-3.69809
-3.6982
-3.69833
-3.69848
-3.69865
-3.69884
-3.69905
-3.69929
-3.69955
-3.69984
-3.70019
-3.69229
-3.69229
-3.6923
-3.6923
-3.6923
-3.69231
-3.69232
-3.69233
-3.69234
-3.69236
-3.69239
-3.69241
-3.69245
-3.6925
-3.69255
-3.69261
-3.69269
-3.69278
-3.69288
-3.693
-3.69313
-3.69329
-3.69346
-3.69366
-3.69387
-3.69411
-3.69438
-3.69465
-3.68724
-3.68724
-3.68724
-3.68725
-3.68725
-3.68726
-3.68726
-3.68727
-3.68728
-3.6873
-3.68732
-3.68735
-3.68738
-3.68742
-3.68746
-3.68752
-3.68758
-3.68766
-3.68775
-3.68785
-3.68796
-3.68809
-3.68824
-3.6884
-3.68858
-3.68877
-3.68898
-3.68919
-3.68227
-3.68227
-3.68227
-3.68227
-3.68227
-3.68228
-3.68228
-3.68229
-3.6823
-3.68231
-3.68233
-3.68235
-3.68238
-3.68241
-3.68245
-3.6825
-3.68256
-3.68262
-3.6827
-3.68279
-3.68289
-3.68301
-3.68314
-3.68328
-3.68344
-3.68362
-3.68381
-3.68403
-3.67751
-3.67751
-3.67751
-3.67751
-3.67751
-3.67751
-3.67751
-3.67752
-3.67752
-3.67753
-3.67754
-3.67756
-3.67758
-3.67761
-3.67764
-3.67767
-3.67772
-3.67777
-3.67784
-3.67791
-3.678
-3.6781
-3.67821
-3.67833
-3.67848
-3.67864
-3.67881
-3.67902
-3.67272
-3.67272
-3.67272
-3.67271
-3.67271
-3.67271
-3.67271
-3.67271
-3.67272
-3.67272
-3.67273
-3.67274
-3.67275
-3.67276
-3.67278
-3.67281
-3.67284
-3.67288
-3.67293
-3.67298
-3.67304
-3.67312
-3.6732
-3.6733
-3.67341
-3.67354
-3.67368
-3.67383
-3.66777
-3.66777
-3.66777
-3.66777
-3.66777
-3.66777
-3.66777
-3.66777
-3.66777
-3.66777
-3.66778
-3.66778
-3.66779
-3.66781
-3.66782
-3.66784
-3.66787
-3.6679
-3.66793
-3.66798
-3.66803
-3.66809
-3.66816
-3.66825
-3.66834
-3.66844
-3.66856
-3.66868
-3.66274
-3.66274
-3.66274
-3.66274
-3.66274
-3.66274
-3.66274
-3.66274
-3.66274
-3.66274
-3.66275
-3.66275
-3.66276
-3.66277
-3.66278
-3.6628
-3.66282
-3.66285
-3.66288
-3.66292
-3.66296
-3.66302
-3.66308
-3.66315
-3.66324
-3.66333
-3.66344
-3.66355
-3.65764
-3.65764
-3.65764
-3.65764
-3.65764
-3.65764
-3.65764
-3.65764
-3.65764
-3.65764
-3.65764
-3.65765
-3.65765
-3.65766
-3.65767
-3.65769
-3.6577
-3.65773
-3.65775
-3.65778
-3.65782
-3.65787
-3.65792
-3.65798
-3.65805
-3.65813
-3.65822
-3.65832
-3.65246
-3.65246
-3.65246
-3.65246
-3.65246
-3.65246
-3.65246
-3.65246
-3.65246
-3.65247
-3.65247
-3.65247
-3.65248
-3.65249
-3.6525
-3.65251
-3.65253
-3.65255
-3.65257
-3.6526
-3.65264
-3.65268
-3.65273
-3.65278
-3.65285
-3.65292
-3.653
-3.65313
-3.64726
-3.64726
-3.64726
-3.64726
-3.64726
-3.64726
-3.64726
-3.64727
-3.64727
-3.64727
-3.64727
-3.64728
-3.64728
-3.64729
-3.6473
-3.64732
-3.64733
-3.64735
-3.64738
-3.64741
-3.64744
-3.64749
-3.64754
-3.6476
-3.64767
-3.64775
-3.64786
-3.64799
-123.082
-123.082
-123.082
-123.082
-123.082
-123.082
-123.082
-123.082
-123.082
-123.082
-123.082
-123.082
-123.082
-123.082
-123.082
-123.082
-123.082
-123.081
-123.081
-123.081
-123.081
-123.081
-123.081
-123.081
-123.081
-123.081
-123.081
-123.081
-123.047
-123.047
-123.047
-123.047
-123.047
-123.047
-123.047
-123.047
-123.047
-123.047
-123.047
-123.047
-123.047
-123.047
-123.047
-123.047
-123.047
-123.047
-123.047
-123.047
-123.047
-123.047
-123.047
-123.046
-123.046
-123.046
-123.046
-123.046
-123.013
-123.013
-123.013
-123.013
-123.013
-123.013
-123.013
-123.013
-123.013
-123.013
-123.013
-123.013
-123.013
-123.013
-123.013
-123.013
-123.012
-123.012
-123.012
-123.012
-123.012
-123.012
-123.012
-123.012
-123.012
-123.012
-123.012
-123.012
-122.978
-122.978
-122.978
-122.978
-122.978
-122.978
-122.978
-122.978
-122.978
-122.978
-122.978
-122.978
-122.978
-122.978
-122.978
-122.978
-122.978
-122.978
-122.978
-122.978
-122.978
-122.978
-122.978
-122.978
-122.978
-122.978
-122.978
-122.978
-122.944
-122.944
-122.944
-122.944
-122.944
-122.944
-122.944
-122.944
-122.944
-122.944
-122.944
-122.944
-122.944
-122.944
-122.944
-122.944
-122.944
-122.944
-122.944
-122.944
-122.944
-122.945
-122.945
-122.945
-122.945
-122.945
-122.945
-122.945
-7.83081
-7.83077
-7.83075
-7.83077
-7.83085
-7.83102
-7.83131
-7.83177
-7.83245
-7.8334
-7.83469
-7.83639
-7.8386
-7.84138
-7.84486
-7.84911
-7.85425
-7.86037
-7.86757
-7.87593
-7.88554
-7.89646
-7.90875
-7.92243
-7.93754
-7.95406
-7.97199
-7.99116
-7.82566
-7.82562
-7.8256
-7.82562
-7.8257
-7.82588
-7.82617
-7.82664
-7.82731
-7.82825
-7.82953
-7.83121
-7.83338
-7.83611
-7.8395
-7.84365
-7.84864
-7.85457
-7.86153
-7.86959
-7.87882
-7.88929
-7.90103
-7.91407
-7.92842
-7.94407
-7.96096
-7.9791
-7.8192
-7.81917
-7.81915
-7.81917
-7.81926
-7.81943
-7.81973
-7.8202
-7.82087
-7.82182
-7.82309
-7.82476
-7.8269
-7.82961
-7.83295
-7.83703
-7.84192
-7.84773
-7.85452
-7.86238
-7.87136
-7.88153
-7.89292
-7.90554
-7.91941
-7.9345
-7.9508
-7.96823
-7.81084
-7.81081
-7.81079
-7.81082
-7.81091
-7.81109
-7.81139
-7.81186
-7.81254
-7.81348
-7.81474
-7.8164
-7.81852
-7.82118
-7.82448
-7.82848
-7.83328
-7.83896
-7.84559
-7.85326
-7.86201
-7.8719
-7.88296
-7.89523
-7.9087
-7.92337
-7.93921
-7.95603
-7.80118
-7.80115
-7.80114
-7.80116
-7.80126
-7.80144
-7.80174
-7.80221
-7.80289
-7.80382
-7.80508
-7.80671
-7.80881
-7.81143
-7.81466
-7.81858
-7.82328
-7.82882
-7.83528
-7.84273
-7.85122
-7.8608
-7.87151
-7.88337
-7.89638
-7.91052
-7.92573
-7.94215
-7.78982
-7.78979
-7.78978
-7.78981
-7.78991
-7.79009
-7.7904
-7.79086
-7.79154
-7.79246
-7.7937
-7.79532
-7.79737
-7.79995
-7.80311
-7.80694
-7.81152
-7.81691
-7.82319
-7.83041
-7.83864
-7.84791
-7.85826
-7.8697
-7.88224
-7.89585
-7.91055
-7.92636
-7.77718
-7.77715
-7.77715
-7.77718
-7.77728
-7.77746
-7.77776
-7.77823
-7.77889
-7.77981
-7.78102
-7.78261
-7.78462
-7.78714
-7.79022
-7.79394
-7.79838
-7.8036
-7.80967
-7.81663
-7.82455
-7.83345
-7.84337
-7.85431
-7.86628
-7.87924
-7.89323
-7.90795
-7.76326
-7.76324
-7.76323
-7.76327
-7.76336
-7.76355
-7.76385
-7.76432
-7.76498
-7.76589
-7.76709
-7.76866
-7.77065
-7.77312
-7.77615
-7.77981
-7.78416
-7.78926
-7.79519
-7.80199
-7.80971
-7.81839
-7.82804
-7.83869
-7.85033
-7.86295
-7.87651
-7.8908
-7.74801
-7.74799
-7.74799
-7.74802
-7.74812
-7.74831
-7.74861
-7.74907
-7.74973
-7.75063
-7.75182
-7.75336
-7.75531
-7.75773
-7.7607
-7.76427
-7.76851
-7.77349
-7.77926
-7.78587
-7.79337
-7.80179
-7.81116
-7.82148
-7.83277
-7.84501
-7.85816
-7.87223
-127.192
-127.192
-127.192
-127.192
-127.192
-127.192
-127.192
-127.192
-127.192
-127.192
-127.192
-127.192
-127.192
-127.192
-127.192
-127.192
-127.192
-127.192
-127.192
-127.192
-127.192
-127.192
-127.191
-127.191
-127.191
-127.191
-127.191
-127.191
-127.103
-127.103
-127.103
-127.103
-127.103
-127.103
-127.103
-127.103
-127.103
-127.103
-127.103
-127.103
-127.103
-127.103
-127.104
-127.104
-127.104
-127.104
-127.104
-127.105
-127.105
-127.106
-127.106
-127.107
-127.108
-127.109
-127.11
-127.112
-3.64199
-3.64199
-3.64199
-3.64199
-3.64199
-3.64199
-3.642
-3.642
-3.642
-3.642
-3.642
-3.642
-3.64201
-3.64201
-3.64202
-3.64203
-3.64204
-3.64205
-3.64206
-3.64208
-3.64209
-3.64212
-3.64214
-3.64217
-3.6422
-3.64224
-3.64228
-3.64228
-3.63678
-3.63678
-3.63678
-3.63678
-3.63678
-3.63678
-3.63678
-3.63678
-3.63678
-3.63678
-3.63679
-3.63679
-3.63679
-3.6368
-3.6368
-3.63681
-3.63682
-3.63683
-3.63684
-3.63686
-3.63688
-3.6369
-3.63692
-3.63695
-3.63698
-3.63702
-3.63705
-3.63709
-3.63148
-3.63148
-3.63148
-3.63148
-3.63148
-3.63149
-3.63149
-3.63149
-3.63149
-3.63149
-3.63149
-3.6315
-3.6315
-3.63151
-3.63151
-3.63152
-3.63153
-3.63155
-3.63156
-3.63158
-3.6316
-3.63163
-3.63166
-3.6317
-3.63174
-3.63178
-3.63184
-3.63191
-3.62626
-3.62626
-3.62626
-3.62626
-3.62626
-3.62626
-3.62626
-3.62626
-3.62626
-3.62627
-3.62627
-3.62627
-3.62627
-3.62628
-3.62628
-3.62629
-3.6263
-3.62631
-3.62632
-3.62634
-3.62635
-3.62638
-3.6264
-3.62643
-3.62647
-3.62651
-3.62656
-3.62662
-3.62094
-3.62095
-3.62095
-3.62095
-3.62095
-3.62095
-3.62095
-3.62095
-3.62095
-3.62096
-3.62096
-3.62096
-3.62096
-3.62097
-3.62097
-3.62098
-3.62099
-3.62099
-3.621
-3.62101
-3.62103
-3.62104
-3.62106
-3.62108
-3.6211
-3.62112
-3.62114
-3.62117
-3.61576
-3.61576
-3.61576
-3.61576
-3.61576
-3.61577
-3.61577
-3.61577
-3.61577
-3.61577
-3.61578
-3.61578
-3.61579
-3.61579
-3.6158
-3.61581
-3.61582
-3.61583
-3.61585
-3.61587
-3.61589
-3.61592
-3.61596
-3.616
-3.61605
-3.61611
-3.61619
-3.61629
-3.61042
-3.61042
-3.61042
-3.61042
-3.61042
-3.61042
-3.61043
-3.61043
-3.61043
-3.61043
-3.61043
-3.61043
-3.61043
-3.61043
-3.61043
-3.61044
-3.61044
-3.61044
-3.61044
-3.61045
-3.61045
-3.61045
-3.61045
-3.61046
-3.61046
-3.61046
-3.61046
-3.61044
-3.6053
-3.6053
-3.6053
-3.6053
-3.6053
-3.6053
-3.60531
-3.60531
-3.60531
-3.60531
-3.60531
-3.60532
-3.60532
-3.60533
-3.60533
-3.60534
-3.60535
-3.60536
-3.60537
-3.60538
-3.6054
-3.60542
-3.60545
-3.60547
-3.60551
-3.60554
-3.60557
-3.60563
-3.6
-3.6
-3.60001
-3.60001
-3.60001
-3.60001
-3.60001
-3.60001
-3.60002
-3.60002
-3.60002
-3.60003
-3.60003
-3.60003
-3.60004
-3.60005
-3.60006
-3.60007
-3.60008
-3.6001
-3.60012
-3.60014
-3.60017
-3.60021
-3.60025
-3.6003
-3.60037
-3.60046
-3.59488
-3.59488
-3.59489
-3.59489
-3.59489
-3.59489
-3.59489
-3.5949
-3.5949
-3.5949
-3.5949
-3.5949
-3.59491
-3.59491
-3.59491
-3.59491
-3.59492
-3.59492
-3.59493
-3.59494
-3.59495
-3.59496
-3.59497
-3.59498
-3.59499
-3.595
-3.59502
-3.59498
-3.5897
-3.5897
-3.5897
-3.58971
-3.58971
-3.58971
-3.58971
-3.58971
-3.58972
-3.58972
-3.58972
-3.58973
-3.58973
-3.58974
-3.58974
-3.58975
-3.58976
-3.58977
-3.58978
-3.5898
-3.58982
-3.58984
-3.58986
-3.58989
-3.58992
-3.58996
-3.58999
-3.59003
-126.333
-126.333
-126.333
-126.333
-126.333
-126.333
-126.333
-126.333
-126.333
-126.333
-126.333
-126.333
-126.333
-126.333
-126.333
-126.333
-126.333
-126.333
-126.333
-126.333
-126.332
-126.332
-126.332
-126.332
-126.332
-126.332
-126.331
-126.331
-126.3
-126.3
-126.3
-126.3
-126.3
-126.3
-126.3
-126.3
-126.3
-126.3
-126.3
-126.3
-126.3
-126.3
-126.3
-126.3
-126.3
-126.3
-126.3
-126.3
-126.3
-126.3
-126.3
-126.3
-126.3
-126.3
-126.3
-126.3
-126.266
-126.266
-126.266
-126.266
-126.266
-126.266
-126.266
-126.266
-126.266
-126.266
-126.266
-126.266
-126.266
-126.266
-126.266
-126.266
-126.266
-126.266
-126.266
-126.266
-126.266
-126.267
-126.267
-126.267
-126.267
-126.267
-126.267
-126.267
-126.578
-126.578
-126.578
-126.578
-126.578
-126.578
-126.578
-126.578
-126.578
-126.578
-126.578
-126.578
-126.578
-126.578
-126.578
-126.578
-126.578
-126.578
-126.578
-126.578
-126.578
-126.578
-126.578
-126.578
-126.578
-126.578
-126.578
-126.578
-126.542
-126.542
-126.542
-126.542
-126.542
-126.542
-126.542
-126.542
-126.542
-126.542
-126.542
-126.542
-126.542
-126.542
-126.542
-126.542
-126.542
-126.542
-126.542
-126.542
-126.542
-126.542
-126.542
-126.542
-126.542
-126.542
-126.542
-126.542
-124.451
-124.451
-124.451
-124.451
-124.451
-124.451
-124.451
-124.451
-124.451
-124.451
-124.451
-124.451
-124.451
-124.451
-124.451
-124.451
-124.451
-124.451
-124.451
-124.451
-124.451
-124.452
-124.452
-124.452
-124.452
-124.452
-124.452
-124.452
-124.41
-124.41
-124.41
-124.41
-124.41
-124.41
-124.41
-124.41
-124.41
-124.41
-124.41
-124.41
-124.41
-124.41
-124.41
-124.41
-124.41
-124.41
-124.41
-124.41
-124.411
-124.411
-124.411
-124.411
-124.412
-124.412
-124.413
-124.413
-124.368
-124.368
-124.368
-124.368
-124.368
-124.368
-124.368
-124.368
-124.368
-124.368
-124.368
-124.368
-124.368
-124.368
-124.369
-124.369
-124.369
-124.369
-124.37
-124.37
-124.371
-124.371
-124.372
-124.373
-124.374
-124.375
-124.376
-124.378
-124.325
-124.325
-124.325
-124.325
-124.325
-124.325
-124.325
-124.325
-124.326
-124.326
-124.326
-124.326
-124.326
-124.326
-124.326
-124.326
-124.326
-124.327
-124.327
-124.328
-124.328
-124.329
-124.329
-124.33
-124.331
-124.332
-124.334
-124.335
-124.283
-124.283
-124.283
-124.283
-124.283
-124.283
-124.283
-124.283
-124.283
-124.283
-124.283
-124.283
-124.283
-124.283
-124.283
-124.283
-124.283
-124.283
-124.283
-124.283
-124.283
-124.283
-124.283
-124.283
-124.283
-124.283
-124.283
-124.283
-127.017
-127.017
-127.017
-127.017
-127.017
-127.017
-127.017
-127.017
-127.016
-127.016
-127.016
-127.016
-127.016
-127.016
-127.016
-127.016
-127.016
-127.016
-127.016
-127.016
-127.016
-127.016
-127.015
-127.015
-127.015
-127.014
-127.014
-127.014
-127.738
-127.738
-127.738
-127.738
-127.738
-127.738
-127.739
-127.739
-127.739
-127.739
-127.739
-127.739
-127.739
-127.739
-127.739
-127.739
-127.74
-127.74
-127.74
-127.741
-127.741
-127.742
-127.743
-127.744
-127.746
-127.748
-127.751
-127.754
-126.973
-126.973
-126.973
-126.973
-126.973
-126.973
-126.973
-126.973
-126.973
-126.973
-126.973
-126.973
-126.973
-126.973
-126.973
-126.973
-126.973
-126.973
-126.973
-126.972
-126.972
-126.972
-126.972
-126.971
-126.971
-126.97
-126.97
-126.97
-126.932
-126.932
-126.932
-126.932
-126.932
-126.932
-126.932
-126.932
-126.932
-126.932
-126.932
-126.932
-126.932
-126.932
-126.932
-126.932
-126.932
-126.932
-126.932
-126.932
-126.932
-126.932
-126.932
-126.931
-126.931
-126.931
-126.931
-126.93
-122.134
-122.134
-122.134
-122.134
-122.134
-122.134
-122.134
-122.134
-122.134
-122.134
-122.134
-122.134
-122.134
-122.134
-122.134
-122.134
-122.134
-122.134
-122.134
-122.134
-122.134
-122.134
-122.134
-122.134
-122.134
-122.134
-122.135
-122.135
-122.102
-122.102
-122.102
-122.102
-122.102
-122.102
-122.102
-122.102
-122.102
-122.102
-122.102
-122.102
-122.102
-122.102
-122.102
-122.102
-122.103
-122.103
-122.103
-122.103
-122.103
-122.103
-122.103
-122.104
-122.104
-122.104
-122.105
-122.105
-122.07
-122.07
-122.07
-122.07
-122.07
-122.07
-122.07
-122.07
-122.07
-122.07
-122.07
-122.07
-122.07
-122.07
-122.071
-122.071
-122.071
-122.071
-122.071
-122.071
-122.071
-122.071
-122.072
-122.072
-122.072
-122.072
-122.073
-122.073
-122.039
-122.039
-122.039
-122.039
-122.039
-122.039
-122.039
-122.039
-122.039
-122.039
-122.039
-122.039
-122.039
-122.039
-122.039
-122.039
-122.039
-122.039
-122.039
-122.039
-122.039
-122.04
-122.04
-122.04
-122.04
-122.041
-122.041
-122.042
-127.461
-127.461
-127.461
-127.461
-127.461
-127.461
-127.461
-127.461
-127.461
-127.461
-127.461
-127.461
-127.461
-127.461
-127.461
-127.461
-127.461
-127.461
-127.461
-127.46
-127.46
-127.46
-127.46
-127.46
-127.46
-127.46
-127.46
-127.46
-127.147
-127.147
-127.147
-127.147
-127.147
-127.147
-127.147
-127.147
-127.147
-127.147
-127.147
-127.147
-127.147
-127.147
-127.147
-127.147
-127.148
-127.148
-127.148
-127.148
-127.148
-127.148
-127.149
-127.149
-127.149
-127.15
-127.15
-127.15
-127.833
-127.833
-127.833
-127.833
-127.833
-127.833
-127.833
-127.833
-127.833
-127.833
-127.833
-127.834
-127.834
-127.834
-127.834
-127.834
-127.834
-127.834
-127.834
-127.834
-127.834
-127.835
-127.835
-127.835
-127.835
-127.835
-127.835
-127.835
-127.059
-127.059
-127.059
-127.059
-127.059
-127.059
-127.059
-127.059
-127.059
-127.059
-127.059
-127.059
-127.059
-127.059
-127.059
-127.059
-127.058
-127.058
-127.058
-127.058
-127.058
-127.058
-127.058
-127.057
-127.057
-127.057
-127.056
-127.056
-127.371
-127.371
-127.371
-127.371
-127.371
-127.371
-127.371
-127.371
-127.371
-127.371
-127.371
-127.371
-127.371
-127.371
-127.372
-127.372
-127.372
-127.372
-127.372
-127.372
-127.372
-127.373
-127.373
-127.373
-127.374
-127.374
-127.375
-127.376
-127.326
-127.326
-127.326
-127.326
-127.326
-127.326
-127.326
-127.326
-127.326
-127.326
-127.326
-127.326
-127.326
-127.326
-127.326
-127.326
-127.327
-127.327
-127.327
-127.327
-127.327
-127.327
-127.328
-127.328
-127.328
-127.329
-127.329
-127.329
-390.913
-391.548
-392.889
-394.829
-396.785
-397.88
-397.558
-396.003
-394.206
-393.245
-393.843
-396.37
-400.933
-407.076
-412.988
-415.939
-414.065
-406.8
-394.39
-377.829
-358.719
-338.75
-318.823
-299.039
-279.754
-261.955
-246.45
-233.346
-348.76
-348.683
-348.702
-348.812
-348.805
-348.702
-348.572
-348.491
-348.403
-348.191
-347.537
-346.26
-344.903
-343.387
-341.013
-337.738
-333.514
-327.836
-320.267
-310.477
-299.282
-288.759
-279.917
-272.014
-264.537
-257.457
-250.998
-244.431
-351.066
-351.559
-352.263
-352.916
-353.246
-353.129
-352.492
-351.253
-349.351
-346.928
-344.259
-341.585
-338.996
-336.278
-333.108
-329.652
-325.975
-321.667
-316.614
-311.025
-304.854
-298.223
-291.469
-284.782
-278.113
-271.36
-264.71
-258.29
-418.252
-418.275
-418.257
-418.042
-417.447
-416.168
-413.864
-410.562
-406.701
-402.657
-398.39
-393.576
-387.837
-381.057
-373.509
-365.707
-358.019
-350.516
-343.22
-335.957
-328.491
-320.885
-313.292
-305.747
-298.437
-291.211
-284.384
-277.736
-362.667
-362.509
-362.158
-361.589
-360.785
-359.73
-358.351
-356.619
-354.748
-352.857
-350.915
-348.623
-345.422
-341.115
-336.422
-331.788
-327.106
-322.427
-317.626
-312.786
-308.133
-303.495
-298.699
-293.652
-288.349
-282.755
-276.996
-270.917
-376.043
-376.121
-376.096
-375.836
-375.177
-373.977
-372.164
-369.812
-366.858
-363.315
-359.679
-356.105
-352.504
-348.781
-344.831
-340.544
-335.825
-330.751
-325.408
-319.866
-314.31
-308.922
-303.635
-298.316
-292.953
-287.478
-281.991
-276.256
-395.323
-395.022
-394.384
-393.153
-391.285
-388.843
-385.901
-382.598
-378.947
-374.773
-370.09
-365.171
-360.189
-355.273
-350.422
-345.52
-340.581
-335.577
-330.479
-325.214
-319.704
-313.965
-308.105
-302.212
-296.289
-290.281
-284.207
-277.999
-389.265
-389.101
-388.765
-388.207
-387.413
-386.184
-384.209
-381.372
-377.773
-373.652
-369.182
-364.459
-359.583
-354.618
-349.606
-344.571
-339.487
-334.332
-329.093
-323.774
-318.357
-312.816
-307.145
-301.363
-295.51
-289.558
-283.636
-277.524
-393.396
-393.227
-392.862
-392.228
-391.179
-389.477
-387.058
-383.948
-380.226
-376.019
-371.473
-366.712
-361.81
-356.808
-351.721
-346.536
-341.245
-335.839
-330.314
-324.671
-318.92
-313.072
-307.136
-301.115
-294.998
-288.791
-282.509
-276.088
-127.236
-127.236
-127.236
-127.236
-127.236
-127.236
-127.236
-127.236
-127.236
-127.236
-127.236
-127.236
-127.236
-127.236
-127.236
-127.236
-127.236
-127.236
-127.236
-127.236
-127.236
-127.236
-127.236
-127.236
-127.236
-127.236
-127.236
-127.236
-126.89
-126.89
-126.89
-126.89
-126.89
-126.89
-126.89
-126.89
-126.89
-126.89
-126.89
-126.89
-126.89
-126.89
-126.891
-126.891
-126.891
-126.891
-126.891
-126.891
-126.892
-126.892
-126.892
-126.893
-126.893
-126.893
-126.894
-126.894
-127.281
-127.281
-127.281
-127.281
-127.281
-127.281
-127.281
-127.281
-127.281
-127.281
-127.281
-127.282
-127.282
-127.282
-127.282
-127.282
-127.282
-127.282
-127.282
-127.282
-127.282
-127.283
-127.283
-127.283
-127.284
-127.284
-127.284
-127.285
-125.244
-125.244
-125.244
-125.244
-125.244
-125.244
-125.244
-125.244
-125.244
-125.244
-125.244
-125.244
-125.244
-125.244
-125.244
-125.244
-125.244
-125.244
-125.244
-125.244
-125.244
-125.244
-125.244
-125.244
-125.244
-125.244
-125.244
-125.244
-125.21
-125.21
-125.21
-125.21
-125.21
-125.21
-125.21
-125.21
-125.21
-125.21
-125.21
-125.21
-125.21
-125.21
-125.21
-125.21
-125.21
-125.21
-125.21
-125.21
-125.21
-125.21
-125.21
-125.21
-125.21
-125.21
-125.21
-125.21