/*--------------------------------*- C++ -*----------------------------------*\
| =========                 |                                                 |
| \\      /  F ield         | OpenFOAM: The Open Source CFD Toolbox           |
|  \\    /   O peration     | Version:  2412                                  |
|   \\  /    A nd           | Website:  www.openfoam.com                      |
|    \\/     M anipulation  |                                                 |
\*---------------------------------------------------------------------------*/
FoamFile
{
    version     2.0;
    format      ascii;
    arch        "LSB;label=32;scalar=64";
    class       volVectorField;
    location    "500";
    object      wallShearStress;
}
// * * * * * * * * * * * * * * * * * * * * * * * * * * * * * * * * * * * * * //

dimensions      [0 2 -2 0 0 0 0];

internalField   uniform (0 0 0);

boundaryField
{
    frontAndBack
    {
        type            empty;
    }
    symmetry
    {
        type            symmetryPlane;
    }
    outlet
    {
        type            calculated;
        value           uniform (0 0 0);
    }
    wall
    {
        type            calculated;
        value           nonuniform List<vector> 
1155
(
(0.0204294 -0.00121483 -1.76186e-23)
(0.0203062 -0.00118156 2.24923e-21)
(0.0201863 -0.00114883 8.77454e-24)
(0.0200669 -0.00111652 2.23751e-21)
(0.0199491 -0.0010846 2.11457e-27)
(0.0198292 -0.00105297 -2.21736e-21)
(0.019717 -0.00102214 -2.2055e-26)
(0.0195991 -0.000991192 -8.66049e-24)
(0.0194808 -0.000960773 -2.2179e-21)
(0.0193654 -0.000930679 2.21241e-21)
(0.0192462 -0.000900879 0)
(-0.0424679 -9.75533e-06 0)
(-0.0420422 -9.74405e-06 0)
(-0.0415747 -1.11651e-05 0)
(-0.0410761 -1.15538e-05 0)
(-0.040549 -1.2565e-05 0)
(-0.0399686 -1.31698e-05 0)
(-0.0637215 1.35116e-06 0)
(-0.063787 1.36637e-06 0)
(-0.0638656 1.42786e-06 0)
(-0.0639496 1.66666e-06 0)
(-0.06403 1.52979e-06 0)
(0.000725129 -6.16286e-05 0)
(0.00220682 -5.19207e-05 0)
(0.00376007 -4.29029e-05 0)
(0.00543861 -4.85789e-05 0)
(0.00710506 -4.1807e-05 0)
(0.00888196 -2.49063e-05 0)
(-0.0469036 -9.00552e-06 0)
(-0.0465211 -1.35791e-05 0)
(-0.0461206 -2.20147e-05 0)
(-0.0457485 -9.65894e-06 0)
(-0.0453416 -9.54012e-06 0)
(-0.0449626 -9.25104e-06 0)
(-0.00678407 0.000773253 -1.4495e-19)
(-0.00574312 0.000660445 1.45003e-19)
(-0.0045567 0.000524926 3.73954e-26)
(-0.00344326 0.00040187 2.89691e-19)
(-0.00247409 0.00028986 5.81358e-19)
(-0.00166597 0.000198741 -5.67585e-22)
(-0.00110564 0.000132604 2.91252e-19)
(0.0155836 -8.27354e-05 -5.12724e-22)
(0.0155185 -6.38508e-05 5.73972e-42)
(0.015464 -4.53886e-05 -5.88823e-39)
(0.0154258 -2.72556e-05 -6.39524e-23)
(0.0154225 -9.88171e-06 3.19347e-23)
(0.0154737 -1.13184e-06 0)
(0.0155206 -9.01361e-07 0)
(0.0155504 -6.1093e-07 0)
(0.0155723 -4.06141e-07 0)
(0.0155836 -2.29968e-07 0)
(0.0155919 -5.30934e-08 0)
(-0.0632371 -1.65874e-06 0)
(-0.0631776 -1.29856e-06 0)
(-0.06313 -1.12998e-06 0)
(-0.0630908 -8.43131e-07 0)
(-0.0630601 -8.31934e-07 0)
(0.0258718 -0.0170885 -7.40387e-26)
(0.0268351 -0.0173022 -1.35464e-22)
(0.0277786 -0.0174963 -1.35235e-22)
(0.0286907 -0.0176634 3.0212e-25)
(0.0295537 -0.0177957 -3.44261e-20)
(0.0303878 -0.0179064 4.70198e-38)
(0.0311586 -0.0179776 3.44566e-20)
(0.0319133 -0.0180384 1.20437e-25)
(0.0326232 -0.0180725 -3.43295e-20)
(-0.0621113 8.2904e-07 0)
(-0.0622152 -4.52344e-07 0)
(0.0155853 1.90973e-07 0)
(0.0155775 1.6631e-07 0)
(0.0155667 3.21846e-07 0)
(0.0155508 3.82837e-07 0)
(0.0155282 5.04296e-07 0)
(0.0155101 4.68197e-07 0)
(0.0154784 7.89275e-07 0)
(0.0154488 5.27817e-07 0)
(0.0154226 8.80007e-07 0)
(0.0153772 8.53111e-07 0)
(0.015343 9.40987e-07 0)
(-0.0608168 -7.13145e-07 0)
(-0.0608161 -1.99294e-07 0)
(-0.0608115 -1.48343e-07 0)
(-0.061227 -1.6669e-06 0)
(-0.0611532 -1.51242e-06 0)
(-0.0625267 4.29048e-06 0)
(-0.0627112 4.31289e-06 0)
(-0.0629132 4.3465e-06 0)
(-0.0630545 1.6489e-06 0)
(-0.0630626 -2.15042e-07 0)
(-0.0620705 -1.14389e-06 0)
(-0.0620009 -2.78182e-06 0)
(-0.062015 -2.3036e-06 0)
(-0.0619788 7.81303e-08 0)
(-0.0607948 -1.18216e-06 0)
(-0.0607471 -9.50505e-07 0)
(-0.0606792 -1.76713e-06 0)
(-0.0605927 -2.26151e-06 0)
(-0.0615244 2.54406e-06 0)
(-0.0621748 7.75979e-07 0)
(-0.0620483 -2.19113e-07 0)
(-0.0621339 -2.93189e-06 0)
(-0.0617905 2.7779e-06 0)
(-0.0619221 2.38885e-06 0)
(0.0721716 -1.04109 1.17549e-38)
(0.0875962 0.806679 2.45363e-22)
(0.103244 1.84387 -2.44701e-19)
(0.0459952 -0.0110167 -4.60464e-23)
(0.314532 0.867377 -3.07354e-23)
(0.0959669 0.299981 1.67184e-18)
(0.333255 0.377014 8.78721e-22)
(0.565047 0.727642 6.73794e-19)
(0.718309 0.732723 7.93292e-22)
(-0.0620869 4.23984e-07 0)
(-0.0619913 -7.12068e-09 0)
(-0.062022 2.06813e-06 0)
(-0.0601424 1.5588e-06 0)
(-0.0602068 2.1512e-06 0)
(-0.0602963 2.38914e-06 0)
(-0.0603889 2.5621e-06 0)
(-0.0604873 2.50263e-06 0)
(-0.0618351 -6.52638e-06 0)
(-0.0614173 -2.70473e-06 0)
(-0.0616241 -3.04276e-06 0)
(-0.0614763 6.66544e-07 0)
(-0.0620308 -9.76667e-07 0)
(-0.0613892 7.71312e-07 0)
(-0.0616901 2.73675e-06 0)
(-0.0613614 -2.01408e-06 0)
(-0.0618242 1.40425e-06 0)
(-0.0559436 -3.42452e-06 0)
(-0.0557825 -3.35156e-06 0)
(-0.0556432 -4.17874e-06 0)
(-0.0554143 -5.35768e-06 0)
(-0.0552143 -4.48974e-06 0)
(-0.0608171 2.09758e-05 0)
(-0.0615971 -6.43461e-06 0)
(-0.0599251 -1.03274e-06 0)
(-0.0620809 5.45391e-06 0)
(-0.0598949 4.55369e-07 0)
(-0.0607872 1.47582e-06 0)
(-0.0605818 2.52625e-06 0)
(-0.0362631 -1.23512e-05 0)
(-0.0357023 -1.34675e-05 0)
(-0.0350725 -1.42328e-05 0)
(-0.034448 -1.38718e-05 0)
(-0.0338118 -1.57834e-05 0)
(-0.0330732 -1.60675e-05 0)
(0.0295419 -0.00441951 -2.15475e-23)
(0.0293739 -0.00434413 -1.10108e-20)
(0.029208 -0.00426998 2.14642e-23)
(0.0290425 -0.00419686 -1.09259e-20)
(0.028879 -0.00412485 0)
(0.0287077 -0.00405236 2.11356e-23)
(0.0285259 -0.00397968 -1.0822e-20)
(0.0283612 -0.00391034 8.22846e-38)
(0.0281885 -0.0038404 1.20784e-26)
(0.0280211 -0.00377237 -2.92266e-40)
(-0.0149227 -2.5402e-05 0)
(-0.0136894 -2.55073e-05 0)
(-0.0124913 -2.45829e-05 0)
(-0.0113075 -2.33391e-05 0)
(-0.0102357 -2.23307e-05 0)
(-0.00911794 -2.39227e-05 0)
(-0.0566976 -4.16448e-06 0)
(-0.0565185 -4.36184e-06 0)
(-0.0563524 -3.48846e-06 0)
(-0.0562057 -3.60635e-06 0)
(-0.0560674 -2.80822e-06 0)
(-0.061728 -2.56034e-06 0)
(-0.0616038 -2.5659e-06 0)
(-0.0615143 -2.03865e-06 0)
(-0.0614116 -2.54371e-06 0)
(-0.0613017 -2.24074e-06 0)
(-0.0584631 -4.78805e-06 0)
(-0.0582617 -4.93998e-06 0)
(-0.0580865 -2.88613e-06 0)
(-0.0579759 -3.35952e-06 0)
(-0.0578243 -3.28384e-06 0)
(0.0159181 -0.0135965 -6.91503e-20)
(0.017111 -0.0141385 1.3526e-22)
(0.0182307 -0.0145946 1.38308e-19)
(0.019424 -0.0150821 6.94732e-20)
(0.0205349 -0.0154927 8.3464e-20)
(0.0216435 -0.0158705 -3.95246e-20)
(0.0227551 -0.0162428 -7.06911e-21)
(0.0237982 -0.0165391 1.06765e-20)
(0.024849 -0.0168259 2.7093e-22)
(0.00279184 -0.00017422 -2.84543e-22)
(0.00179405 -0.000108731 2.8455e-22)
(0.000747742 -1.81491e-05 2.84344e-22)
(-0.000582149 8.18651e-05 -2.8435e-22)
(-0.00173918 0.00016227 0)
(-0.00303266 0.000260201 -1.4572e-19)
(-0.00412482 0.00034142 1.10032e-25)
(-0.0852251 0.0178999 1.15089e-21)
(-0.0788782 0.0159294 -1.16721e-21)
(-0.0394615 0.00329462 9.30147e-24)
(0.0533995 -0.0140092 2.33664e-21)
(0.139275 -0.0327562 -1.16826e-21)
(0.235418 -0.0520711 0)
(0.18175 -0.0373796 -1.86638e-19)
(-0.0550156 -5.11566e-06 0)
(-0.0548079 -4.37123e-06 0)
(-0.0546438 -4.44636e-06 0)
(-0.0544504 -4.45221e-06 0)
(-0.0542786 -4.3913e-06 0)
(0.0155641 -1.13652e-06 0)
(0.0156204 -1.21101e-06 0)
(0.0156788 -1.30624e-06 0)
(0.0157438 -1.45577e-06 0)
(0.015815 -1.56757e-06 0)
(0.0158899 -1.66437e-06 0)
(0.0159707 -1.82142e-06 0)
(0.0160583 -1.85174e-06 0)
(0.0161426 -1.92512e-06 0)
(0.0162391 -2.14604e-06 0)
(0.0163394 -2.20688e-06 0)
(0.0164458 -2.40243e-06 0)
(0.0165596 -2.49663e-06 0)
(0.0166783 -2.5934e-06 0)
(-0.0273383 -1.91527e-05 0)
(-0.0264343 -2.07986e-05 0)
(-0.0254972 -1.91867e-05 0)
(-0.0246959 -1.89253e-05 0)
(-0.0237633 -2.04931e-05 0)
(-0.0228881 -1.96793e-05 0)
(0.0377523 -0.0174723 5.9794e-26)
(0.0380894 -0.0173442 3.33173e-20)
(0.0383983 -0.0172072 3.31401e-20)
(0.0386908 -0.0170678 -3.29606e-20)
(0.0389667 -0.0169248 3.28424e-20)
(0.0392125 -0.0167729 6.42816e-23)
(0.0394389 -0.0166172 -3.31489e-36)
(0.0396388 -0.0164547 -3.25401e-20)
(0.0398176 -0.016288 -3.25406e-20)
(0.0403099 -0.0126756 2.97761e-20)
(0.0402395 -0.012502 -1.17549e-38)
(0.0401577 -0.0123287 7.86339e-27)
(0.0400845 -0.0121608 5.87283e-20)
(0.0399763 -0.0119853 -2.35099e-38)
(0.0398674 -0.0118136 -2.67877e-36)
(0.0397576 -0.0116442 -1.36275e-36)
(0.0396343 -0.0114744 -5.61502e-23)
(0.039525 -0.0113113 5.61519e-23)
(-0.0600694 -5.34892e-07 0)
(-0.0600495 -8.18511e-07 0)
(-0.0599977 -7.92386e-07 0)
(-0.0599726 -6.95307e-07 0)
(0.0193563 -5.44044e-06 0)
(0.0196144 -5.70342e-06 0)
(0.0198853 -5.92864e-06 0)
(0.0201608 -6.03422e-06 0)
(0.0204473 -6.35886e-06 0)
(0.0207469 -6.48e-06 0)
(0.0210497 -6.69685e-06 0)
(0.0213674 -6.98479e-06 0)
(0.0216986 -7.32724e-06 0)
(0.0220461 -7.67081e-06 0)
(0.0224099 -8.01806e-06 0)
(0.0227875 -8.34372e-06 0)
(0.0231844 -8.82873e-06 0)
(0.0236033 -9.24282e-06 0)
(0.0240404 -9.72549e-06 0)
(-0.0598864 -3.75798e-07 0)
(-0.059886 9.32068e-08 0)
(-0.0598808 2.39006e-08 0)
(-0.0598823 3.40736e-07 0)
(-0.00785873 -2.53048e-05 0)
(-0.00654491 -2.62231e-05 0)
(-0.00512957 -2.61876e-05 0)
(-0.00369123 -2.53731e-05 0)
(-0.00217319 -2.28108e-05 0)
(-0.000724654 -3.68117e-05 0)
(-0.063553 -1.36361e-06 0)
(-0.0634802 -1.36206e-06 0)
(-0.0634343 -1.57175e-06 0)
(-0.0633607 -1.73244e-06 0)
(-0.0633038 -1.48007e-06 0)
(-0.0530101 -5.55331e-06 0)
(-0.0527393 -6.45418e-06 0)
(-0.0524904 -5.49421e-06 0)
(-0.0522537 -6.21119e-06 0)
(-0.0519951 -5.57196e-06 0)
(0.0139109 1.72674e-06 0)
(0.0138279 1.92638e-06 0)
(0.0137456 1.75475e-06 0)
(0.01367 1.78349e-06 0)
(0.0135878 1.77838e-06 0)
(0.0135142 1.76565e-06 0)
(0.0134264 2.08337e-06 0)
(0.013339 1.79521e-06 0)
(0.0132591 1.87322e-06 0)
(0.0131773 1.6757e-06 0)
(0.0131032 1.68164e-06 0)
(-0.0630461 -2.71006e-07 0)
(-0.06308 8.92732e-07 0)
(-0.0631289 6.88635e-07 0)
(-0.0631813 1.28824e-06 0)
(-0.0632566 1.31016e-06 0)
(0.0337267 -0.0265677 1.28707e-18)
(0.0680528 -0.0535029 1.29651e-18)
(0.106314 -0.0851709 -2.61116e-18)
(0.143556 -0.117608 1.31694e-18)
(0.183936 -0.154311 -2.62238e-21)
(0.216096 -0.184825 5.27298e-21)
(0.194096 -0.170019 1.34624e-23)
(0.217949 -0.200701 -1.18735e-22)
(0.0649977 -0.04491 1.34281e-18)
(5.76912e-05 0.000525792 -1.17549e-38)
(-1.96926e-06 -0.001034 2.06908e-21)
(0.000103104 -0.00150575 -1.53916e-37)
(0.000267734 -0.00217608 0)
(0.000499535 -0.00281717 1.66153e-20)
(0.000719029 -0.00314605 -3.32936e-20)
(0.00103526 -0.00369651 -3.32759e-20)
(0.00130527 -0.00395147 -1.30469e-22)
(0.00166884 -0.00439055 -3.33904e-20)
(0.0346527 -0.00713139 1.24851e-20)
(0.0344716 -0.00701823 4.84472e-23)
(0.034291 -0.00690668 -4.84483e-23)
(0.0341104 -0.00679682 -2.46417e-20)
(0.0339278 -0.0066879 -1.22668e-20)
(0.0337415 -0.00657999 -4.76165e-23)
(0.0335626 -0.00647482 1.22076e-20)
(0.0333815 -0.00637082 0)
(0.0332055 -0.00626905 -0)
(0.81763 0.722056 2.38743e-19)
(0.479097 0.378192 4.70198e-37)
(0.320186 0.187528 3.18993e-19)
(0.438672 0.171112 -8.30184e-19)
(0.566257 0.213453 -7.52316e-37)
(-0.000881416 0.0721426 -3.67755e-21)
(-1.71246 -0.233776 1.92588e-18)
(-1.71971 -0.0134942 -5.2344e-19)
(-0.102099 0.0635129 4.31446e-20)
(-0.0931252 0.0586892 -4.88159e-21)
(-0.0875304 0.0563629 -6.23745e-19)
(-0.0823546 0.0540189 -1.29304e-37)
(-0.070914 0.0473449 -6.29598e-19)
(-0.0529279 0.0358352 -1.50463e-36)
(-0.0290314 0.0194767 6.35387e-19)
(0.00012936 -0.00155592 -6.3935e-19)
(-0.00603105 0.00123692 -2.99161e-19)
(-0.0108764 0.00222701 -1.83671e-39)
(-0.0177723 0.00363063 -2.98285e-19)
(-0.0250722 0.00514074 2.99527e-19)
(-0.0363995 0.00754 3.01081e-19)
(-0.0492406 0.0105423 -1.12291e-19)
(-0.0619708 0.0132125 -1.15298e-22)
(-0.0741773 0.0155925 -1.16939e-21)
(0.0425155 -0.0134131 -6.461e-19)
(0.0410376 -0.0130237 -7.52316e-37)
(0.0402505 -0.0128581 6.48641e-19)
(0.0384275 -0.0124099 6.52638e-19)
(0.0365483 -0.0119435 -1.50463e-36)
(0.0359821 -0.0119419 -1.30868e-18)
(0.0368606 -0.0124117 -1.28233e-21)
(-0.000705861 8.88592e-05 -2.914e-19)
(-0.000626346 8.48281e-05 5.68169e-22)
(-0.000908739 0.000132619 -5.68674e-22)
(-0.0017248 0.000257913 5.68661e-22)
(-0.00329096 0.000495097 -1.6409e-25)
(-0.00572243 0.000870993 9.40906e-23)
(0.035218 -2.80785e-05 0)
(0.0365749 -3.14127e-05 0)
(0.0380957 -3.53579e-05 0)
(0.0398143 -4.03427e-05 0)
(0.0417847 -4.65616e-05 0)
(0.0440671 -5.45762e-05 0)
(0.0467617 -6.5298e-05 0)
(0.0500082 -8.00304e-05 0)
(0.054025 -0.00010145 0)
(0.0591807 -0.000134176 0)
(0.0660852 -0.000188484 0)
(0.0759895 -0.000283891 0)
(0.0910308 -0.000489674 0)
(0.118261 -0.000949406 0)
(-0.0097516 0.000873008 2.83156e-22)
(-0.0102173 0.000926141 -2.83152e-22)
(-0.0105437 0.000965621 -1.44923e-19)
(-0.0107127 0.000992511 -2.89791e-19)
(-0.0107616 0.00100939 1.44872e-19)
(-0.0107132 0.00102013 -4.70198e-38)
(0.0147471 -1.47507e-07 0)
(0.0147586 -3.13812e-07 0)
(0.0147751 -2.61197e-07 0)
(0.0147911 -3.61511e-07 0)
(0.0148064 -2.05169e-07 0)
(0.0148157 6.91388e-09 0)
(0.0148041 2.69496e-07 0)
(0.0148076 -2.74803e-07 0)
(0.0148206 1.10526e-08 0)
(0.0148178 -1.84518e-07 0)
(0.0148361 -2.21279e-07 0)
(0.0148451 -3.51961e-07 0)
(0.0148698 -2.97872e-07 0)
(0.0148729 -9.1594e-08 0)
(0.0440384 -0.00181823 1.27283e-36)
(0.0517359 -0.00227358 9.20233e-43)
(0.065185 -0.00299198 1.08193e-38)
(0.0783439 -0.00343175 0)
(0.0788917 -0.00308017 -7.32529e-20)
(0.0624855 -0.00201265 -7.34286e-20)
(0.0313671 -0.00021291 -1.10203e-39)
(0.0331101 -0.000273223 -1.51986e-36)
(0.0349799 -0.000330612 2.21466e-42)
(0.0368631 -0.00039923 1.11155e-26)
(0.0390556 -0.000479656 -1.76584e-20)
(0.0415644 -0.000576227 -6.91645e-23)
(0.202849 -0.575115 -2.77711e-37)
(0.360858 -1.11887 2.00144e-21)
(0.44718 -1.39224 1.89301e-19)
(0.13061 -0.308801 -1.69627e-20)
(-0.576111 3.08619 3.11983e-19)
(-0.654881 4.27329 -3.26415e-19)
(-0.573371 2.47705 -5.99128e-22)
(0.246637 -3.94075 2.67691e-19)
(-0.0615105 -2.19056e-06 0)
(0.00706101 -0.00370044 -1.23707e-18)
(0.00779983 -0.00422204 -6.20111e-19)
(0.00685897 -0.00399651 -1.24515e-18)
(0.0144264 -0.00893453 2.8348e-24)
(0.0332097 -0.0182387 -6.31082e-19)
(-0.0085099 0.0104182 -1.91809e-22)
(-0.0725549 0.0445456 -6.25793e-19)
(-0.0965006 0.059599 0)
(0.0405855 -0.0144656 -3.11462e-20)
(0.0405947 -0.014282 -3.09499e-20)
(0.0405982 -0.0141003 -6.04344e-23)
(0.0405891 -0.0139182 -3.06771e-20)
(0.0405748 -0.0137382 3.05401e-20)
(0.040548 -0.0135578 -3.04625e-20)
(0.0405161 -0.0133793 -5.90943e-23)
(0.0404747 -0.0132013 5.90963e-23)
(0.0404295 -0.0130258 -2.99927e-20)
(0.0403723 -0.0128497 -5.856e-23)
(0.0217265 -3.85119e-05 0)
(0.0233732 -3.87011e-05 0)
(0.0249969 -5.29526e-05 7.47611e-41)
(0.0265214 -8.66029e-05 9.77704e-38)
(0.0281659 -0.000128776 4.39205e-21)
(0.0298955 -0.000166496 -8.77975e-21)
(0.00848297 -0.000460336 2.86134e-22)
(0.00877711 -0.000489156 -7.31801e-20)
(0.00914794 -0.000509576 0)
(0.00918519 -0.000512575 2.85549e-22)
(0.00845822 -0.00047178 -5.70978e-22)
(0.00816843 -0.000481576 -7.27705e-20)
(0.00805063 -0.000472068 -2.85218e-22)
(-0.0602752 -9.90037e-07 0)
(-0.0601865 -1.9369e-06 0)
(-0.0601361 -6.45454e-07 0)
(-0.0601135 -9.09709e-07 0)
(-0.0219066 -2.31474e-05 0)
(-0.0208454 -2.26293e-05 0)
(-0.0197651 -2.543e-05 0)
(-0.0185626 -2.56102e-05 0)
(-0.0173487 -2.70772e-05 0)
(-0.0160909 -2.55655e-05 0)
(-0.0604545 -3.46228e-06 0)
(-0.0603275 -2.40988e-06 0)
(-0.060217 -3.15131e-06 0)
(-0.0600926 -1.92636e-06 0)
(-0.060033 -1.82035e-06 0)
(0.0260574 -0.00302098 -5.15433e-21)
(0.0258917 -0.00296272 3.98191e-23)
(0.0257387 -0.00290704 5.05953e-21)
(0.0255895 -0.00285205 -5.45307e-27)
(0.0254354 -0.00279735 -5.04487e-21)
(0.0252901 -0.00274417 -5.02783e-21)
(0.0251375 -0.00269082 -5.01088e-21)
(0.0249881 -0.00263852 4.99412e-21)
(0.0248413 -0.00258699 -1.46937e-39)
(0.0246948 -0.00253623 -1.93473e-23)
(-0.0608387 1.31136e-06 0)
(-0.0609021 2.07339e-06 0)
(-0.0612455 -1.30068e-06 0)
(-0.0613419 -2.30348e-06 0)
(-0.0610996 -2.06724e-06 0)
(-0.0610222 -1.73265e-06 0)
(-0.06096 -2.11414e-06 0)
(-0.0608886 -1.34659e-06 0)
(-0.060859 -1.22889e-06 0)
(0.0393907 -0.011144 -5.56233e-23)
(0.0392725 -0.0109845 -2.83569e-20)
(0.0391251 -0.0108188 2.82225e-20)
(0.038978 -0.0106573 -2.80899e-20)
(0.0388369 -0.0104992 -2.80121e-20)
(0.0386793 -0.01034 -1.17549e-38)
(0.0385378 -0.0101873 8.37999e-39)
(0.0383813 -0.0100336 -5.38187e-23)
(0.0382295 -0.00988335 2.75446e-20)
(0.0380752 -0.00973507 -2.73625e-20)
(-0.0610014 2.3298e-06 0)
(-0.0610941 2.57925e-06 0)
(-0.06122 3.24013e-06 0)
(-0.0613554 3.35279e-06 0)
(-0.0615064 3.9658e-06 0)
(-0.0603433 -1.36266e-06 0)
(-0.0603101 -5.51281e-07 0)
(-0.0602965 -4.34108e-07 0)
(-0.0602834 -1.80485e-07 0)
(-0.0616715 3.39649e-06 0)
(0.0245525 -0.00248632 -4.90613e-21)
(0.0244043 -0.00243623 -6.31599e-26)
(0.0242494 -0.00238628 -3.83749e-23)
(0.0241044 -0.00233812 1.9159e-23)
(0.0239653 -0.00229081 4.90017e-21)
(0.0238187 -0.00224326 -9.54862e-24)
(0.0236772 -0.00219694 -9.48806e-24)
(0.0235366 -0.00215113 9.42843e-24)
(0.0233962 -0.002106 -9.42852e-24)
(0.0232636 -0.00206192 4.78415e-27)
(-0.0630227 -9.10759e-07 0)
(-0.0629841 -1.12228e-06 0)
(-0.0629217 -1.56068e-06 0)
(-0.0628537 -2.07646e-06 0)
(-0.0627234 -3.21741e-06 0)
(-0.0626027 -2.68148e-06 0)
(-0.062463 -3.5238e-06 0)
(-0.0623454 -1.89321e-06 0)
(-0.0622628 -2.6798e-06 0)
(0.0140441 -3.38009e-07 0)
(0.0140624 -3.8514e-07 0)
(0.0140832 -4.48283e-07 0)
(0.0141073 -4.98922e-07 0)
(0.0141318 -4.83599e-07 0)
(0.0141549 -4.88224e-07 0)
(0.0141802 -5.40017e-07 0)
(0.0142071 -4.9623e-07 0)
(0.014228 -4.33608e-07 0)
(0.0142515 -4.89624e-07 0)
(0.0142746 -4.25077e-07 0)
(0.0142949 -4.22698e-07 0)
(0.0143158 -4.29468e-07 0)
(-0.0638666 -2.64304e-06 0)
(-0.0637826 -3.62657e-06 0)
(-0.0636619 -1.05734e-06 0)
(-0.0636586 -1.67218e-06 0)
(-0.0635739 -1.0844e-06 0)
(-0.18813 0.0872713 -4.34447e-24)
(-0.158923 0.0743643 -1.84532e-39)
(-0.126765 0.0597148 7.52316e-37)
(-0.0905209 0.0435821 -6.12199e-19)
(-0.0782123 0.038372 -2.48264e-35)
(-0.062489 0.0314754 -4.66236e-36)
(-0.0504356 0.0243124 -3.76158e-37)
(-0.00983583 0.00441617 -6.1122e-19)
(0.0312622 -0.00523372 2.93874e-39)
(0.03109 -0.00514768 1.14607e-20)
(0.0309115 -0.00506126 -2.22468e-23)
(0.030734 -0.00497666 1.13675e-20)
(0.0305664 -0.00489439 2.2157e-23)
(0.030392 -0.00481232 1.12537e-20)
(0.0302248 -0.00473212 2.1979e-23)
(0.0300505 -0.00465191 2.18038e-23)
(0.0298835 -0.00457383 -2.18043e-23)
(0.02971 -0.00449573 -1.10975e-20)
(0.0330268 -0.00616826 -2.35099e-38)
(0.0328514 -0.00606943 -1.19515e-20)
(0.0326723 -0.00597109 1.76324e-38)
(0.0324978 -0.00587502 1.18498e-20)
(0.0323191 -0.0057793 2.2997e-23)
(0.0321406 -0.00568505 1.17268e-20)
(0.0319646 -0.00559228 -2.34238e-20)
(0.0317858 -0.00550039 2.28051e-23)
(0.0316104 -0.00541028 1.15807e-20)
(0.0314399 -0.00532209 2.26164e-23)
(-0.00126154 0.000152831 2.98321e-19)
(0.000733415 -0.000143881 2.9739e-19)
(0.00116292 -0.000211726 -2.98735e-19)
(0.000911982 -0.000167741 1.16542e-21)
(0.000737702 -0.000119772 -1.16623e-21)
(-0.00048278 0.000118896 -2.9818e-19)
(-0.00266123 0.000552203 -2.98968e-19)
(-0.0633396 1.55913e-06 0)
(-0.0633998 8.52555e-07 0)
(-0.0634718 2.02128e-06 0)
(-0.0635724 1.27635e-06 0)
(-0.0636305 1.55863e-06 0)
(-0.0393724 -1.41329e-05 0)
(-0.038733 -1.41365e-05 0)
(-0.0381276 -1.44658e-05 0)
(-0.0374432 -1.51484e-05 0)
(-0.0368142 -1.29685e-05 0)
(0.0135063 -2.82146e-07 0)
(0.0135176 -1.23314e-07 0)
(0.0135274 -3.48451e-07 0)
(0.0135494 -2.18441e-07 0)
(0.0135522 -1.18392e-07 0)
(0.0135662 -2.92466e-07 0)
(0.0135814 -2.34976e-07 0)
(0.0135919 -2.31067e-07 0)
(0.0136059 -2.40581e-07 0)
(0.0136164 -1.19973e-07 0)
(0.0136201 -7.62543e-08 0)
(0.0136287 -1.91137e-07 0)
(0.0152964 1.05055e-06 0)
(0.0152464 1.269e-06 0)
(0.0151855 1.26131e-06 0)
(0.0151337 1.29348e-06 0)
(0.0150725 1.33043e-06 0)
(0.0150174 1.22526e-06 0)
(0.0149621 1.28853e-06 0)
(0.0149058 1.22771e-06 0)
(0.0148499 1.33954e-06 0)
(0.0147902 1.2874e-06 0)
(0.0147331 1.39575e-06 0)
(0.111865 -0.0204423 2.94716e-23)
(0.00480887 0.000687016 -3.05894e-19)
(-0.0284285 0.00820843 1.25326e-20)
(-0.0256564 0.0051513 -1.96869e-19)
(0.00075123 -0.000728381 1.19366e-21)
(0.0268502 -0.00687375 -7.34684e-40)
(0.0342738 -0.00829059 4.26329e-25)
(0.036521 -0.00888108 1.51345e-37)
(2.06528 -1.15195 -2.43997e-21)
(4.56484 -3.94644 9.08564e-19)
(4.91579 -7.43346 6.99446e-21)
(1.4047 -7.64483 5.64373e-19)
(-1.25276 -6.2451 1.16814e-21)
(-2.60937 -4.06481 -4.31257e-19)
(-2.40147 -1.72785 -2.1952e-19)
(-1.52835 -0.406349 -4.38491e-20)
(-0.34907 -0.0577117 2.93874e-37)
(0.0106689 -3.45667e-05 0)
(0.0124834 -4.50405e-05 0)
(0.0144101 -4.57311e-05 0)
(0.0163036 -4.54637e-05 0)
(0.0182495 -4.44309e-05 0)
(0.0200548 -4.04043e-05 0)
(-0.00836159 0.00129544 -1.18573e-19)
(-0.0120543 0.00180261 -2.91779e-19)
(-0.0165861 0.00248903 5.8215e-19)
(-0.0215647 0.00325042 2.90877e-19)
(-0.0273339 0.00412789 9.40395e-38)
(-0.0331251 0.00502586 0)
(-0.0388279 0.00590195 2.89902e-19)
(-0.0595036 -2.03908e-06 0)
(-0.0593667 -3.82949e-06 0)
(-0.0592226 -1.96874e-06 0)
(-0.0591073 -5.87996e-06 0)
(-0.0587067 -8.02732e-06 0)
(-0.0621489 -1.78463e-06 0)
(-0.0620861 -1.96774e-06 0)
(-0.0619951 -1.69778e-06 0)
(-0.0619239 -2.04681e-06 0)
(-0.0618246 -2.17886e-06 0)
(0.0364464 -0.00835377 1.31131e-20)
(0.0362628 -0.00822227 -1.30536e-20)
(0.0360913 -0.00809557 2.58869e-20)
(0.0359152 -0.00796964 -1.17549e-38)
(0.0357275 -0.00784268 -1.2826e-20)
(0.0355441 -0.00771909 1.17549e-38)
(0.035367 -0.00759832 1.27105e-20)
(0.0351847 -0.0074785 -1.26042e-20)
(0.0350106 -0.00736172 1.24985e-20)
(0.03483 -0.00724547 1.25899e-20)
(0.0145953 -6.09722e-07 0)
(0.0146257 -5.50249e-07 0)
(0.0146509 -5.41033e-07 0)
(0.0146743 -3.44602e-07 0)
(0.0146888 -4.44292e-07 0)
(0.0147182 -4.33591e-07 0)
(0.0147299 -1.10082e-07 0)
(0.0147356 -1.51371e-07 0)
(0.0147487 4.4976e-08 0)
(0.0147316 3.17586e-07 0)
(0.0147365 -1.78185e-07 0)
(0.0147409 1.97717e-07 0)
(0.0147342 -7.22266e-08 0)
(-0.148623 -0.0480962 2.48677e-20)
(-0.0432486 -0.0250614 -1.06862e-22)
(-0.0169009 -0.0145149 2.71396e-20)
(-0.00328332 -0.00511175 -6.73327e-24)
(-0.0103906 0.00111384 9.90721e-28)
(-0.0103379 0.00112048 1.7216e-19)
(-0.0102017 0.00111715 1.45379e-19)
(-0.00986524 0.00108968 -2.89083e-19)
(-0.00937454 0.00104472 -1.1316e-21)
(-0.00867614 0.000974318 -1.44304e-19)
(-0.00782059 0.000885574 1.35678e-36)
(-0.0576567 -4.90383e-06 0)
(-0.0574533 -3.98236e-06 0)
(-0.0572864 -4.87678e-06 0)
(-0.0570727 -4.56023e-06 0)
(-0.0568875 -4.71648e-06 0)
(0.0123518 4.88146e-07 0)
(0.012321 1.6425e-07 0)
(0.0123077 1.02125e-07 0)
(0.0122941 -1.73323e-07 0)
(0.0122957 -3.17952e-07 0)
(0.0123009 -4.76807e-07 0)
(0.0123116 -6.03864e-07 0)
(0.0123331 -7.36057e-07 0)
(0.0123487 -6.2885e-07 0)
(0.012374 -9.84243e-07 0)
(0.012409 -9.70082e-07 0)
(0.0124451 -1.16099e-06 0)
(0.00719222 -0.000426927 2.85221e-22)
(0.0065244 -0.000397549 0)
(0.0058016 -0.00035861 -2.91519e-19)
(0.00512919 -0.0003219 -1.46138e-19)
(0.00426194 -0.000268728 -2.84728e-22)
(0.00359228 -0.000232029 2.84732e-22)
(0.0634204 -0.00133583 3.59582e-20)
(0.064044 -0.00138696 -7.04895e-23)
(0.0637779 -0.00141972 7.23369e-20)
(0.0616977 -0.00140652 5.87747e-39)
(0.0587159 -0.00138724 -3.62815e-20)
(0.05502 -0.00133411 0)
(-0.0606555 -1.94973e-06 0)
(-0.060574 -2.53537e-06 0)
(-0.0604614 -2.09124e-06 0)
(-0.0604073 -1.46068e-06 0)
(-0.032356 -1.69586e-05 0)
(-0.0315656 -1.79275e-05 0)
(-0.0307597 -1.82617e-05 0)
(-0.029923 -1.94173e-05 0)
(-0.0290432 -1.93165e-05 0)
(-0.0281855 -1.92342e-05 0)
(-0.0599108 7.08582e-07 0)
(-0.0599374 9.11365e-07 0)
(-0.0599761 1.38359e-06 0)
(-0.0600315 1.59367e-06 0)
(-0.0600896 1.63547e-06 0)
(-0.305875 0.307705 1.29594e-18)
(-0.239855 0.240207 4.35413e-20)
(-0.0139755 -0.0138523 1.41059e-37)
(0.259165 -0.280652 -2.74041e-21)
(0.0344942 -0.019552 2.17396e-23)
(-0.196647 0.263272 1.65308e-18)
(-0.55815 0.707145 -1.34987e-18)
(-0.492199 0.640275 1.75442e-19)
(0.0136397 -1.77771e-07 0)
(0.0136493 -2.09044e-07 0)
(0.0136616 -2.64875e-07 0)
(0.0136773 -3.29555e-07 0)
(0.0136928 -2.92296e-07 0)
(0.0137072 -2.67068e-07 0)
(0.0137182 -3.05719e-07 0)
(0.0137398 -3.37323e-07 0)
(0.0137449 -8.44364e-08 0)
(0.0137578 -4.23242e-07 0)
(0.0137777 -2.66994e-07 0)
(0.0137905 -4.00166e-07 0)
(0.0138109 -3.31233e-07 0)
(-0.229353 0.281383 2.91093e-21)
(0.338911 -0.545186 7.37784e-19)
(0.741129 -1.15949 -8.13319e-19)
(0.389804 -0.632445 -1.38332e-20)
(0.153312 -0.222327 -2.63104e-21)
(-0.111311 0.216137 1.07346e-24)
(-0.0706545 0.121308 -7.79015e-19)
(0.111985 -0.290168 -7.53584e-23)
(0.165958 -0.00343613 0)
(0.0278531 -0.00370471 -4.43141e-37)
(0.0276814 -0.00363781 2.06541e-23)
(0.0275185 -0.0035726 1.05613e-20)
(0.0273499 -0.00350753 1.05023e-20)
(0.027189 -0.00344419 2.04411e-23)
(0.0270254 -0.0033813 1.04469e-20)
(0.0268618 -0.00331893 -1.043e-20)
(0.0266867 -0.0032561 -1.38121e-36)
(0.0265304 -0.00319657 -5.18823e-21)
(0.0263679 -0.00313659 2.01527e-23)
(0.0262043 -0.00307763 2.00126e-23)
(0.00833425 -0.00214869 6.24954e-19)
(0.00846578 -0.00244518 -6.2703e-19)
(0.0133489 -0.00369874 -6.28172e-19)
(-0.00246021 0.0013381 -1.26041e-18)
(-0.024787 0.00646886 7.52316e-37)
(-0.00255481 -0.00448884 5.18284e-23)
(0.102754 -0.0305225 1.26529e-18)
(0.138739 -0.0401823 1.26779e-18)
(-0.0608138 1.62512e-08 0)
(-0.0608116 -5.76859e-09 0)
(-0.0608166 -4.2948e-07 0)
(-0.0607514 -2.20413e-06 0)
(-0.00511728 0.000424546 2.83876e-22)
(-0.00601752 0.00049889 -1.45262e-19)
(-0.00672584 0.00056348 -2.90705e-19)
(-0.00743669 0.000630279 6.87605e-26)
(-0.00801484 0.000689424 2.83475e-22)
(-0.00865775 0.000756323 2.35099e-38)
(-0.00926424 0.000818919 -1.45033e-19)
(-0.0641163 1.89922e-06 0)
(-0.0641981 1.34828e-06 0)
(-0.0642472 1.4123e-06 0)
(-0.0643081 -1.54729e-06 0)
(-0.0640574 -6.6476e-06 0)
(0.0138275 -4.21382e-07 0)
(0.0138468 -3.03225e-07 0)
(0.0138621 -4.77431e-07 0)
(0.0138893 -3.71246e-07 0)
(0.0138983 -2.51293e-07 0)
(0.0139178 -4.76903e-07 0)
(0.0139418 -3.91449e-07 0)
(0.0139564 -3.78691e-07 0)
(0.0139797 -4.53792e-07 0)
(0.013998 -2.93792e-07 0)
(0.0140106 -2.85197e-07 0)
(0.0140274 -3.2752e-07 0)
(0.0379195 -0.0095887 -2.71817e-20)
(0.0377617 -0.00944435 -2.48009e-25)
(0.0376087 -0.00930321 2.69297e-20)
(0.037444 -0.00916164 1.34288e-20)
(0.0372865 -0.00902388 -1.17549e-38)
(0.0371183 -0.00888565 -1.33048e-20)
(0.0369565 -0.00875125 -1.32437e-20)
(0.0367852 -0.00861629 -1.31313e-20)
(0.0366171 -0.00848465 -1.31737e-20)
(0.0245021 -1.02504e-05 0)
(0.024988 -1.08247e-05 0)
(0.0255015 -1.14367e-05 0)
(0.0260439 -1.20977e-05 0)
(0.0266169 -1.2775e-05 0)
(0.0272223 -1.35683e-05 0)
(0.0278681 -1.44767e-05 0)
(0.0285562 -1.54785e-05 0)
(0.0292949 -1.66616e-05 0)
(0.0300895 -1.79377e-05 0)
(0.0309465 -1.94403e-05 0)
(0.0318767 -2.11144e-05 0)
(0.0328874 -2.30799e-05 0)
(0.0339972 -2.53989e-05 0)
(0.015036 -3.08485e-07 0)
(0.0150677 -6.90903e-07 0)
(0.0150866 -2.34651e-07 0)
(0.015105 -6.33866e-07 0)
(0.0151368 -5.00718e-07 0)
(0.0151647 -8.14096e-07 0)
(0.0152038 -6.2891e-07 0)
(0.0152356 -9.39014e-07 0)
(0.0152841 -8.42265e-07 0)
(0.0153223 -9.91187e-07 0)
(0.0153724 -9.41937e-07 0)
(0.0154161 -1.07881e-06 0)
(0.0154713 -1.02053e-06 0)
(0.0155134 -9.54275e-07 0)
(0.0143386 -4.23117e-07 0)
(0.0143556 -3.25306e-07 0)
(0.0143749 -4.17056e-07 0)
(0.0143941 -3.43354e-07 0)
(0.0144129 -4.62993e-07 0)
(0.0144373 -4.87727e-07 0)
(0.0144624 -5.45294e-07 0)
(0.0144867 -3.48431e-07 0)
(0.0144991 -3.62869e-07 0)
(0.0145252 -3.92985e-07 0)
(0.0145326 -1.57563e-07 0)
(0.0145515 -5.24496e-07 0)
(0.0145745 -3.75748e-07 0)
(0.137771 -0.0183676 -7.00877e-23)
(0.0221707 -0.000847835 6.2669e-24)
(-0.0408796 0.00664524 2.05974e-19)
(-0.0310168 0.0047595 -9.40395e-38)
(-0.0173596 0.00256471 -6.41718e-20)
(-0.00968326 0.00134033 -1.73794e-24)
(-0.00288696 0.000477256 -5.03536e-19)
(0.0146688 1.39663e-06 0)
(0.0146097 1.40033e-06 0)
(0.0145447 1.60663e-06 0)
(0.0144694 1.643e-06 0)
(0.0144026 1.51483e-06 0)
(0.0143347 1.60094e-06 0)
(0.0142635 1.53846e-06 0)
(0.0141975 1.58557e-06 0)
(0.0141246 1.58958e-06 0)
(0.0140566 1.61786e-06 0)
(0.0139824 1.66034e-06 0)
(0.0128585 -8.88879e-07 0)
(0.0129031 -9.25029e-07 0)
(0.0129368 -7.2329e-07 0)
(0.0129752 -8.7803e-07 0)
(0.0130118 -6.40883e-07 0)
(0.0130416 -7.72306e-07 0)
(0.0130813 -7.63351e-07 0)
(0.0131173 -7.55859e-07 0)
(0.0131503 -6.23388e-07 0)
(0.0131816 -6.79701e-07 0)
(0.0132134 -5.16721e-07 0)
(0.0132353 -4.8937e-07 0)
(0.0132629 -4.79449e-07 0)
(-0.0486499 -6.16173e-06 0)
(-0.0483858 -7.4127e-06 0)
(-0.0480024 -9.10644e-06 0)
(-0.0476508 -7.99361e-06 0)
(-0.0473008 -9.50282e-06 0)
(-0.044592 -8.88239e-06 0)
(-0.0441939 -1.0235e-05 0)
(-0.0437612 -1.01954e-05 0)
(-0.043322 -1.04492e-05 0)
(-0.0428828 -9.53244e-06 0)
(0.0216816 -0.00157122 -9.04267e-24)
(0.0215571 -0.00153381 2.57588e-26)
(0.0214286 -0.00149627 -9.21139e-21)
(0.0212932 -0.00145901 -4.60627e-21)
(0.0211709 -0.0014231 2.50222e-26)
(0.0210413 -0.00138689 8.94173e-24)
(0.0209144 -0.00135153 -8.8926e-24)
(0.0207941 -0.00131688 8.89271e-24)
(0.0206693 -0.00128233 -1.9024e-41)
(0.0205507 -0.00124855 8.82092e-24)
(0.0132847 -4.28388e-07 0)
(0.0133081 -4.08152e-07 0)
(0.0133278 -4.31101e-07 0)
(0.0133546 -4.43456e-07 0)
(0.0133709 -2.45936e-07 0)
(0.0133871 -4.6657e-07 0)
(0.0134164 -3.22934e-07 0)
(0.0134204 -1.58592e-07 0)
(0.0134414 -4.12722e-07 0)
(0.0134581 -2.30625e-07 0)
(0.0134728 -3.63188e-07 0)
(0.0134917 -2.69656e-07 0)
(0.178039 -0.0658093 -6.66787e-19)
(0.134152 -0.0498313 -6.658e-35)
(0.100175 -0.0376261 -6.83256e-38)
(0.0904552 -0.0349277 -1.31524e-21)
(0.0716516 -0.0277621 6.75553e-19)
(0.0511094 -0.0198863 -6.74852e-19)
(0.0432 -0.0171502 1.68873e-24)
(0.0286994 -0.0115522 -9.73184e-22)
(-0.0431338 0.00655057 3.72397e-35)
(-0.0448775 0.00664821 -2.89112e-19)
(-0.0296885 0.0037302 -9.40395e-38)
(-0.0129309 0.000355243 1.24464e-19)
(0.0469026 -0.00960537 -5.64675e-22)
(0.141122 -0.025854 -2.90855e-19)
(0.246283 -0.041455 2.95402e-19)