/*--------------------------------*- C++ -*----------------------------------*\
| =========                 |                                                 |
| \\      /  F ield         | OpenFOAM: The Open Source CFD Toolbox           |
|  \\    /   O peration     | Version:  2412                                  |
|   \\  /    A nd           | Website:  www.openfoam.com                      |
|    \\/     M anipulation  |                                                 |
\*---------------------------------------------------------------------------*/
FoamFile
{
    version     2.0;
    format      ascii;
    arch        "LSB;label=32;scalar=64";
    class       volScalarField;
    location    "3500";
    object      p;
}
// * * * * * * * * * * * * * * * * * * * * * * * * * * * * * * * * * * * * * //

dimensions      [0 2 -2 0 0 0 0];

internalField   nonuniform List<scalar> 
360650
(
-4.46507
-4.46508
-4.46509
-4.4651
-4.46512
-4.46514
-4.46516
-4.4652
-4.46524
-4.4653
-4.46538
-4.46548
-4.4656
-4.46575
-4.46593
-4.46616
-4.46644
-4.46676
-4.46716
-4.46762
-4.46817
-4.46882
-4.46958
-4.47047
-4.4715
-4.4727
-4.47404
-4.47588
-4.45577
-4.45577
-4.45578
-4.4558
-4.45581
-4.45583
-4.45585
-4.45588
-4.45592
-4.45597
-4.45604
-4.45611
-4.45621
-4.45633
-4.45648
-4.45666
-4.45687
-4.45713
-4.45742
-4.45777
-4.45817
-4.45863
-4.45916
-4.45976
-4.46044
-4.46118
-4.46203
-4.46304
-4.44668
-4.44668
-4.44669
-4.4467
-4.44672
-4.44674
-4.44676
-4.44679
-4.44683
-4.44688
-4.44695
-4.44704
-4.44714
-4.44727
-4.44743
-4.44762
-4.44785
-4.44813
-4.44845
-4.44883
-4.44927
-4.44978
-4.45037
-4.45103
-4.45177
-4.4526
-4.45353
-4.45445
-4.43764
-4.43765
-4.43766
-4.43767
-4.43769
-4.43771
-4.43773
-4.43776
-4.4378
-4.43786
-4.43792
-4.43801
-4.43812
-4.43825
-4.43841
-4.43861
-4.43885
-4.43913
-4.43947
-4.43988
-4.44035
-4.44091
-4.44157
-4.44233
-4.44321
-4.44423
-4.44543
-4.44673
-4.42879
-4.4288
-4.42881
-4.42882
-4.42883
-4.42885
-4.42887
-4.4289
-4.42894
-4.42899
-4.42905
-4.42912
-4.42922
-4.42934
-4.42948
-4.42966
-4.42986
-4.43011
-4.43041
-4.43075
-4.43115
-4.43161
-4.43215
-4.43275
-4.43344
-4.43422
-4.43508
-4.43598
-4.42019
-4.4202
-4.42021
-4.42022
-4.42023
-4.42025
-4.42027
-4.4203
-4.42034
-4.42039
-4.42045
-4.42053
-4.42063
-4.42075
-4.4209
-4.42108
-4.4213
-4.42156
-4.42187
-4.42224
-4.42266
-4.42316
-4.42373
-4.42437
-4.42511
-4.42593
-4.42683
-4.42785
-4.4116
-4.41161
-4.41162
-4.41163
-4.41164
-4.41166
-4.41169
-4.41172
-4.41176
-4.41181
-4.41188
-4.41197
-4.41208
-4.41221
-4.41238
-4.41259
-4.41283
-4.41313
-4.41348
-4.4139
-4.4144
-4.41498
-4.41566
-4.41645
-4.41735
-4.41839
-4.41955
-4.42097
-4.40328
-4.40329
-4.4033
-4.40331
-4.40332
-4.40334
-4.40337
-4.4034
-4.40344
-4.40349
-4.40356
-4.40364
-4.40375
-4.40389
-4.40405
-4.40425
-4.4045
-4.40479
-4.40515
-4.40557
-4.40607
-4.40667
-4.40737
-4.40819
-4.40916
-4.41028
-4.41163
-4.41337
-4.39475
-4.39476
-4.39477
-4.39478
-4.39479
-4.39481
-4.39483
-4.39486
-4.39489
-4.39493
-4.39499
-4.39505
-4.39514
-4.39524
-4.39536
-4.39551
-4.39569
-4.39589
-4.39614
-4.39642
-4.39675
-4.39712
-4.39755
-4.39802
-4.39854
-4.3991
-4.39976
-4.40025
-4.38702
-4.38703
-4.38704
-4.38704
-4.38706
-4.38707
-4.3871
-4.38712
-4.38716
-4.38721
-4.38727
-4.38734
-4.38744
-4.38756
-4.3877
-4.38788
-4.38809
-4.38834
-4.38864
-4.38899
-4.3894
-4.38987
-4.39042
-4.39104
-4.39174
-4.39253
-4.39336
-4.39416
-4.37881
-4.37882
-4.37883
-4.37884
-4.37885
-4.37887
-4.37889
-4.37892
-4.37895
-4.379
-4.37906
-4.37914
-4.37924
-4.37936
-4.3795
-4.37968
-4.3799
-4.38017
-4.38048
-4.38086
-4.3813
-4.38182
-4.38244
-4.38316
-4.38401
-4.38499
-4.38612
-4.38757
-147.631
-147.665
-147.741
-147.862
-148.026
-148.236
-148.492
-148.794
-149.142
-149.534
-149.971
-150.451
-150.972
-151.53
-152.113
-152.71
-153.306
-153.877
-154.413
-154.897
-155.312
-155.668
-155.968
-156.216
-156.433
-156.674
-156.984
-157.231
-154.983
-154.986
-155.001
-155.039
-155.104
-155.19
-155.288
-155.395
-155.506
-155.618
-155.74
-155.875
-156.024
-156.183
-156.347
-156.511
-156.675
-156.832
-156.977
-157.104
-157.212
-157.305
-157.399
-157.502
-157.573
-157.605
-157.728
-157.989
-159.478
-159.474
-159.469
-159.469
-159.477
-159.494
-159.516
-159.543
-159.581
-159.638
-159.712
-159.79
-159.858
-159.908
-159.939
-159.954
-159.968
-160.001
-160.069
-160.18
-160.314
-160.429
-160.502
-160.543
-160.541
-160.431
-160.227
-160.098
-165.642
-165.637
-165.636
-165.643
-165.66
-165.687
-165.719
-165.751
-165.784
-165.819
-165.86
-165.908
-165.958
-166.008
-166.056
-166.105
-166.183
-166.345
-166.612
-166.907
-166.95
-166.449
-165.424
-164.132
-162.847
-161.651
-160.455
-159.765
-170.769
-170.764
-170.762
-170.766
-170.776
-170.792
-170.814
-170.842
-170.874
-170.906
-170.937
-170.969
-171.007
-171.056
-171.127
-171.244
-171.42
-171.656
-171.923
-172.083
-171.893
-171.218
-169.998
-168.356
-166.506
-164.763
-163.334
-162.451
-173.665
-173.665
-173.666
-173.669
-173.673
-173.68
-173.69
-173.709
-173.739
-173.787
-173.859
-173.961
-174.099
-174.284
-174.523
-174.808
-175.121
-175.428
-175.686
-175.845
-175.794
-175.516
-175.059
-174.535
-174.008
-173.559
-173.157
-172.959
-110.944
-110.945
-110.946
-110.947
-110.948
-110.95
-110.951
-110.954
-110.956
-110.96
-110.964
-110.97
-110.976
-110.983
-110.992
-111.002
-111.013
-111.025
-111.039
-111.054
-111.072
-111.091
-111.112
-111.135
-111.16
-111.187
-111.217
-111.249
-111.274
-111.275
-111.275
-111.276
-111.277
-111.279
-111.281
-111.283
-111.285
-111.289
-111.292
-111.297
-111.302
-111.308
-111.315
-111.323
-111.332
-111.342
-111.354
-111.367
-111.381
-111.398
-111.417
-111.437
-111.46
-111.486
-111.514
-111.544
-111.575
-111.575
-111.576
-111.577
-111.578
-111.579
-111.581
-111.583
-111.585
-111.588
-111.592
-111.596
-111.601
-111.606
-111.613
-111.62
-111.628
-111.637
-111.647
-111.659
-111.673
-111.689
-111.706
-111.726
-111.749
-111.774
-111.801
-111.832
-111.866
-111.867
-111.868
-111.869
-111.87
-111.871
-111.872
-111.874
-111.877
-111.88
-111.883
-111.887
-111.892
-111.898
-111.904
-111.911
-111.919
-111.928
-111.938
-111.95
-111.964
-111.979
-111.996
-112.016
-112.038
-112.063
-112.09
-112.119
-112.188
-112.188
-112.189
-112.19
-112.191
-112.192
-112.194
-112.195
-112.198
-112.201
-112.204
-112.208
-112.213
-112.218
-112.225
-112.231
-112.239
-112.248
-112.257
-112.268
-112.28
-112.294
-112.31
-112.328
-112.348
-112.37
-112.394
-112.422
-150.813
-150.811
-150.809
-150.807
-150.805
-150.805
-150.808
-150.816
-150.834
-150.867
-150.917
-150.986
-151.078
-151.198
-151.352
-151.536
-151.745
-151.974
-152.223
-152.494
-152.789
-153.108
-153.454
-153.821
-154.22
-154.626
-155.079
-155.502
-148.567
-148.565
-148.563
-148.561
-148.559
-148.559
-148.562
-148.569
-148.583
-148.609
-148.647
-148.704
-148.784
-148.895
-149.042
-149.234
-149.468
-149.729
-150.008
-150.302
-150.614
-150.944
-151.298
-151.669
-152.071
-152.478
-152.928
-153.35
-146.493
-146.492
-146.49
-146.488
-146.487
-146.486
-146.488
-146.493
-146.503
-146.52
-146.547
-146.587
-146.646
-146.734
-146.86
-147.031
-147.255
-147.537
-147.856
-148.196
-148.55
-148.917
-149.302
-149.702
-150.13
-150.568
-151.043
-151.507
-144.56
-144.559
-144.558
-144.556
-144.555
-144.554
-144.555
-144.558
-144.563
-144.573
-144.589
-144.613
-144.649
-144.704
-144.788
-144.914
-145.09
-145.329
-145.637
-146.003
-146.399
-146.807
-147.227
-147.654
-148.097
-148.55
-149.02
-149.495
-142.791
-142.79
-142.788
-142.787
-142.786
-142.784
-142.784
-142.785
-142.788
-142.793
-142.801
-142.814
-142.834
-142.864
-142.912
-142.986
-143.105
-143.283
-143.529
-143.864
-144.28
-144.74
-145.221
-145.711
-146.212
-146.722
-147.244
-147.774
-141.215
-141.215
-141.214
-141.213
-141.212
-141.211
-141.211
-141.211
-141.214
-141.218
-141.225
-141.235
-141.251
-141.272
-141.303
-141.35
-141.424
-141.539
-141.72
-141.976
-142.326
-142.771
-143.285
-143.834
-144.399
-144.971
-145.556
-146.139
-167.774
-167.769
-167.769
-167.781
-167.811
-167.866
-167.948
-168.057
-168.194
-168.36
-168.558
-168.793
-169.067
-169.381
-169.731
-170.113
-170.519
-170.942
-171.368
-171.782
-172.171
-172.534
-172.884
-173.233
-173.6
-174.002
-174.396
-174.841
-164.547
-164.545
-164.545
-164.553
-164.574
-164.609
-164.66
-164.726
-164.809
-164.906
-165.016
-165.137
-165.267
-165.409
-165.564
-165.731
-165.911
-166.109
-166.33
-166.577
-166.851
-167.151
-167.476
-167.822
-168.186
-168.578
-169.012
-169.331
-160.893
-160.894
-160.898
-160.91
-160.932
-160.966
-161.012
-161.069
-161.138
-161.218
-161.311
-161.416
-161.536
-161.671
-161.822
-161.99
-162.177
-162.383
-162.61
-162.857
-163.125
-163.415
-163.733
-164.081
-164.449
-164.85
-165.351
-165.799
-157.036
-157.039
-157.043
-157.051
-157.064
-157.083
-157.108
-157.139
-157.177
-157.221
-157.272
-157.33
-157.396
-157.468
-157.55
-157.644
-157.752
-157.881
-158.033
-158.215
-158.431
-158.686
-158.985
-159.332
-159.721
-160.142
-160.605
-161.107
-153.825
-153.83
-153.834
-153.839
-153.844
-153.852
-153.863
-153.876
-153.892
-153.91
-153.932
-153.958
-153.986
-154.018
-154.056
-154.102
-154.159
-154.232
-154.326
-154.449
-154.607
-154.805
-155.048
-155.336
-155.664
-156.022
-156.395
-156.792
-151.886
-151.89
-151.893
-151.893
-151.892
-151.89
-151.888
-151.887
-151.887
-151.887
-151.889
-151.892
-151.896
-151.899
-151.902
-151.907
-151.916
-151.935
-151.969
-152.026
-152.11
-152.224
-152.367
-152.536
-152.728
-152.945
-153.185
-153.447
-166.295
-166.296
-166.296
-166.295
-166.293
-166.29
-166.287
-166.284
-166.281
-166.278
-166.275
-166.274
-166.274
-166.275
-166.279
-166.285
-166.294
-166.307
-166.324
-166.346
-166.372
-166.402
-166.437
-166.478
-166.524
-166.578
-166.647
-166.718
-169.918
-169.918
-169.918
-169.918
-169.917
-169.915
-169.913
-169.91
-169.908
-169.906
-169.904
-169.903
-169.903
-169.904
-169.906
-169.911
-169.918
-169.928
-169.942
-169.96
-169.983
-170.011
-170.045
-170.086
-170.134
-170.186
-170.25
-170.365
-173.528
-173.529
-173.529
-173.529
-173.528
-173.526
-173.525
-173.523
-173.522
-173.521
-173.52
-173.52
-173.521
-173.522
-173.524
-173.528
-173.534
-173.543
-173.554
-173.568
-173.587
-173.61
-173.638
-173.672
-173.714
-173.761
-173.804
-173.873
-177.033
-177.033
-177.033
-177.033
-177.031
-177.03
-177.029
-177.028
-177.027
-177.027
-177.027
-177.028
-177.029
-177.031
-177.035
-177.039
-177.045
-177.053
-177.063
-177.076
-177.092
-177.113
-177.14
-177.171
-177.209
-177.256
-177.307
-177.355
-180.527
-180.527
-180.528
-180.527
-180.526
-180.525
-180.525
-180.526
-180.527
-180.53
-180.534
-180.539
-180.545
-180.553
-180.563
-180.575
-180.59
-180.607
-180.628
-180.653
-180.682
-180.719
-180.762
-180.814
-180.874
-180.946
-181.032
-181.126
-183.955
-183.956
-183.955
-183.954
-183.953
-183.952
-183.952
-183.953
-183.954
-183.958
-183.962
-183.969
-183.977
-183.986
-183.998
-184.012
-184.029
-184.048
-184.071
-184.097
-184.128
-184.165
-184.208
-184.257
-184.315
-184.379
-184.451
-184.552
-187.295
-187.295
-187.294
-187.293
-187.291
-187.29
-187.289
-187.289
-187.291
-187.294
-187.298
-187.305
-187.313
-187.324
-187.337
-187.352
-187.37
-187.391
-187.416
-187.445
-187.478
-187.517
-187.562
-187.614
-187.674
-187.743
-187.817
-187.891
-4.20531
-4.20531
-4.20531
-4.20531
-4.20531
-4.20532
-4.20532
-4.20533
-4.20535
-4.20537
-4.2054
-4.20544
-4.2055
-4.20557
-4.20566
-4.20576
-4.2059
-4.20607
-4.20627
-4.20651
-4.2068
-4.20714
-4.20754
-4.20801
-4.20856
-4.20918
-4.20981
-4.21071
-4.20327
-4.20327
-4.20327
-4.20327
-4.20327
-4.20327
-4.20328
-4.20329
-4.2033
-4.20332
-4.20335
-4.20339
-4.20344
-4.20351
-4.20359
-4.2037
-4.20382
-4.20398
-4.20418
-4.20441
-4.2047
-4.20504
-4.20545
-4.20594
-4.20654
-4.20723
-4.20809
-4.20943
-4.20161
-4.20161
-4.20161
-4.20161
-4.20161
-4.20161
-4.20161
-4.20162
-4.20162
-4.20164
-4.20165
-4.20167
-4.2017
-4.20174
-4.20178
-4.20184
-4.2019
-4.20198
-4.20207
-4.20217
-4.20229
-4.20243
-4.20258
-4.20274
-4.20292
-4.20314
-4.20345
-4.20354
-4.20015
-4.20015
-4.20014
-4.20014
-4.20014
-4.20014
-4.20014
-4.20014
-4.20015
-4.20016
-4.20018
-4.2002
-4.20023
-4.20027
-4.20032
-4.20038
-4.20045
-4.20055
-4.20066
-4.20079
-4.20094
-4.20113
-4.20134
-4.20158
-4.20186
-4.20216
-4.20249
-4.20283
-4.19864
-4.19863
-4.19863
-4.19862
-4.19861
-4.19861
-4.19861
-4.19861
-4.19861
-4.19861
-4.19862
-4.19863
-4.19864
-4.19866
-4.19869
-4.19872
-4.19877
-4.19882
-4.19889
-4.19897
-4.19907
-4.19919
-4.19933
-4.1995
-4.19969
-4.19992
-4.20019
-4.20048
-4.19742
-4.19741
-4.1974
-4.19739
-4.19738
-4.19738
-4.19737
-4.19737
-4.19736
-4.19736
-4.19736
-4.19737
-4.19738
-4.19739
-4.19741
-4.19743
-4.19746
-4.19751
-4.19756
-4.19762
-4.19769
-4.19778
-4.19789
-4.198
-4.19814
-4.19828
-4.19844
-4.19857
-4.19561
-4.19561
-4.1956
-4.19559
-4.19558
-4.19557
-4.19557
-4.19556
-4.19556
-4.19556
-4.19556
-4.19556
-4.19557
-4.19559
-4.19561
-4.19564
-4.19567
-4.19572
-4.19579
-4.19587
-4.19596
-4.19609
-4.19623
-4.19641
-4.19661
-4.19686
-4.19715
-4.19747
-4.19385
-4.19384
-4.19383
-4.19383
-4.19382
-4.19381
-4.19381
-4.1938
-4.1938
-4.1938
-4.1938
-4.19381
-4.19382
-4.19383
-4.19385
-4.19388
-4.19392
-4.19397
-4.19403
-4.19411
-4.19421
-4.19432
-4.19447
-4.19464
-4.19484
-4.19508
-4.19536
-4.19563
-4.19174
-4.19174
-4.19173
-4.19172
-4.19172
-4.19171
-4.1917
-4.1917
-4.1917
-4.1917
-4.1917
-4.1917
-4.19171
-4.19172
-4.19174
-4.19177
-4.1918
-4.19185
-4.19191
-4.19198
-4.19207
-4.19219
-4.19232
-4.19248
-4.19268
-4.19293
-4.19321
-4.19348
-4.18943
-4.18942
-4.18941
-4.18941
-4.1894
-4.1894
-4.18939
-4.18939
-4.18939
-4.18939
-4.18939
-4.1894
-4.18941
-4.18943
-4.18945
-4.18948
-4.18952
-4.18958
-4.18964
-4.18972
-4.18982
-4.18994
-4.19006
-4.19023
-4.19047
-4.19079
-4.19111
-4.19132
-4.18714
-4.18713
-4.18713
-4.18712
-4.18712
-4.18711
-4.18711
-4.18711
-4.18711
-4.18712
-4.18713
-4.18715
-4.18717
-4.1872
-4.18725
-4.18731
-4.18739
-4.18749
-4.18762
-4.18778
-4.18798
-4.18823
-4.18854
-4.189
-4.18971
-4.19061
-4.19168
-4.19283
-120.272
-120.273
-120.273
-120.274
-120.274
-120.274
-120.274
-120.274
-120.274
-120.274
-120.275
-120.275
-120.276
-120.277
-120.279
-120.281
-120.283
-120.287
-120.291
-120.296
-120.302
-120.31
-120.318
-120.328
-120.34
-120.353
-120.367
-120.38
-121.193
-121.194
-121.194
-121.194
-121.195
-121.194
-121.194
-121.194
-121.194
-121.194
-121.194
-121.194
-121.194
-121.194
-121.195
-121.196
-121.197
-121.199
-121.202
-121.205
-121.21
-121.215
-121.222
-121.229
-121.239
-121.25
-121.262
-121.277
-122.188
-122.188
-122.189
-122.189
-122.189
-122.189
-122.189
-122.188
-122.188
-122.188
-122.187
-122.187
-122.187
-122.186
-122.187
-122.187
-122.188
-122.19
-122.192
-122.195
-122.199
-122.204
-122.21
-122.217
-122.226
-122.236
-122.249
-122.265
-123.274
-123.275
-123.275
-123.276
-123.276
-123.276
-123.276
-123.276
-123.276
-123.275
-123.275
-123.275
-123.274
-123.274
-123.275
-123.275
-123.276
-123.278
-123.28
-123.283
-123.287
-123.293
-123.299
-123.306
-123.315
-123.324
-123.335
-123.35
-124.423
-124.423
-124.424
-124.425
-124.425
-124.425
-124.426
-124.426
-124.426
-124.426
-124.426
-124.426
-124.426
-124.425
-124.425
-124.425
-124.426
-124.426
-124.427
-124.429
-124.432
-124.435
-124.439
-124.444
-124.45
-124.457
-124.464
-124.473
-6.95112
-6.95106
-6.951
-6.95095
-6.95092
-6.95092
-6.95095
-6.95105
-6.95123
-6.95153
-6.95201
-6.95271
-6.95372
-6.95511
-6.957
-6.95951
-6.96279
-6.96699
-6.9723
-6.97889
-6.98697
-6.99672
-7.00835
-7.02203
-7.03796
-7.05625
-7.07734
-7.10023
-6.96798
-6.96793
-6.96787
-6.96782
-6.96779
-6.96779
-6.96784
-6.96795
-6.96815
-6.96848
-6.96898
-6.96972
-6.97077
-6.97221
-6.97415
-6.97672
-6.98004
-6.98427
-6.98958
-6.99614
-7.00413
-7.01374
-7.02512
-7.03845
-7.0539
-7.0716
-7.09169
-7.11398
-6.98499
-6.98493
-6.98487
-6.98483
-6.98481
-6.98481
-6.98487
-6.98499
-6.98521
-6.98557
-6.98611
-6.9869
-6.988
-6.9895
-6.99151
-6.99414
-6.99753
-7.00183
-7.00718
-7.01376
-7.02173
-7.03126
-7.0425
-7.05561
-7.07072
-7.08792
-7.10743
-7.1293
-7.00064
-7.00058
-7.00053
-7.00049
-7.00047
-7.00048
-7.00055
-7.00068
-7.00093
-7.00131
-7.00189
-7.00272
-7.00387
-7.00544
-7.00752
-7.01023
-7.01369
-7.01807
-7.0235
-7.03014
-7.03815
-7.0477
-7.05893
-7.072
-7.08704
-7.10417
-7.12366
-7.14482
-7.01586
-7.0158
-7.01575
-7.01571
-7.0157
-7.01572
-7.01579
-7.01595
-7.01621
-7.01662
-7.01722
-7.01809
-7.01928
-7.02088
-7.023
-7.02575
-7.02925
-7.03364
-7.03907
-7.04567
-7.05361
-7.06303
-7.07408
-7.08689
-7.10159
-7.11831
-7.13712
-7.15817
-7.02984
-7.02979
-7.02974
-7.0297
-7.02969
-7.02972
-7.02981
-7.02997
-7.03025
-7.03068
-7.03132
-7.03221
-7.03344
-7.03508
-7.03724
-7.04002
-7.04355
-7.04795
-7.05336
-7.05992
-7.06777
-7.07705
-7.0879
-7.10043
-7.11478
-7.13099
-7.14932
-7.16977
-7.04301
-7.04295
-7.0429
-7.04287
-7.04287
-7.0429
-7.04299
-7.04317
-7.04347
-7.04392
-7.04457
-7.04549
-7.04675
-7.04842
-7.0506
-7.0534
-7.05693
-7.06132
-7.06669
-7.07318
-7.08092
-7.09004
-7.10066
-7.11289
-7.12686
-7.14262
-7.16046
-7.17985
-7.05499
-7.05494
-7.05489
-7.05486
-7.05486
-7.0549
-7.055
-7.05519
-7.05551
-7.05598
-7.05665
-7.0576
-7.05888
-7.06059
-7.0628
-7.06562
-7.06916
-7.07355
-7.0789
-7.08534
-7.09299
-7.10198
-7.11242
-7.12442
-7.13808
-7.15349
-7.1708
-7.18959
-7.06592
-7.06588
-7.06583
-7.0658
-7.06581
-7.06586
-7.06597
-7.06617
-7.0665
-7.06699
-7.06769
-7.06866
-7.06997
-7.0717
-7.07393
-7.07678
-7.08033
-7.08472
-7.09005
-7.09645
-7.10403
-7.11291
-7.12321
-7.13503
-7.14847
-7.16361
-7.18056
-7.19935
-120.212
-120.214
-120.216
-120.218
-120.221
-120.225
-120.23
-120.238
-120.249
-120.264
-120.282
-120.303
-120.326
-120.351
-120.377
-120.407
-120.44
-120.475
-120.51
-120.545
-120.578
-120.61
-120.639
-120.665
-120.684
-120.703
-120.71
-120.721
-120.861
-120.862
-120.863
-120.864
-120.865
-120.866
-120.869
-120.873
-120.878
-120.886
-120.896
-120.908
-120.923
-120.94
-120.959
-120.98
-121.002
-121.025
-121.048
-121.069
-121.091
-121.111
-121.131
-121.149
-121.164
-121.186
-121.189
-121.233
-4.18406
-4.18406
-4.18405
-4.18405
-4.18404
-4.18404
-4.18403
-4.18403
-4.18403
-4.18402
-4.18402
-4.18402
-4.18402
-4.18402
-4.18402
-4.18402
-4.18402
-4.18403
-4.18404
-4.18404
-4.18406
-4.18407
-4.18409
-4.1841
-4.18409
-4.18408
-4.1841
-4.18416
-4.18169
-4.18168
-4.18168
-4.18167
-4.18167
-4.18166
-4.18166
-4.18166
-4.18165
-4.18165
-4.18165
-4.18166
-4.18166
-4.18167
-4.18168
-4.18169
-4.18171
-4.18173
-4.18176
-4.1818
-4.18184
-4.18188
-4.18192
-4.18197
-4.18201
-4.18202
-4.18201
-4.18191
-4.17833
-4.17833
-4.17832
-4.17832
-4.17832
-4.17831
-4.17831
-4.17831
-4.17831
-4.17831
-4.17831
-4.17831
-4.17832
-4.17833
-4.17835
-4.17837
-4.1784
-4.17843
-4.17848
-4.17854
-4.17861
-4.1787
-4.17881
-4.17895
-4.17912
-4.17932
-4.17958
-4.17991
-4.17555
-4.17555
-4.17554
-4.17554
-4.17553
-4.17553
-4.17553
-4.17552
-4.17552
-4.17552
-4.17552
-4.17551
-4.17551
-4.17552
-4.17552
-4.17553
-4.17554
-4.17555
-4.17557
-4.17559
-4.17562
-4.17565
-4.1757
-4.17575
-4.17582
-4.17588
-4.176
-4.17606
-4.17204
-4.17203
-4.17203
-4.17202
-4.17202
-4.17201
-4.17201
-4.17201
-4.17201
-4.17201
-4.17201
-4.17201
-4.17202
-4.17203
-4.17204
-4.17206
-4.17208
-4.17211
-4.17214
-4.17219
-4.17224
-4.1723
-4.17236
-4.17244
-4.17251
-4.17258
-4.17273
-4.17279
-4.16899
-4.16899
-4.16898
-4.16898
-4.16898
-4.16897
-4.16897
-4.16897
-4.16897
-4.16898
-4.16898
-4.16899
-4.16901
-4.16903
-4.16906
-4.1691
-4.16915
-4.16922
-4.1693
-4.16941
-4.16954
-4.16971
-4.16991
-4.17017
-4.17048
-4.1709
-4.1716
-4.17236
-4.16507
-4.16507
-4.16506
-4.16506
-4.16506
-4.16505
-4.16505
-4.16505
-4.16505
-4.16504
-4.16504
-4.16504
-4.16503
-4.16503
-4.16503
-4.16503
-4.16503
-4.16503
-4.16503
-4.16503
-4.16503
-4.16503
-4.16503
-4.16502
-4.16502
-4.16501
-4.16494
-4.16492
-4.1619
-4.1619
-4.1619
-4.16189
-4.16189
-4.16189
-4.16189
-4.16188
-4.16189
-4.16189
-4.16189
-4.1619
-4.16191
-4.16192
-4.16194
-4.16197
-4.162
-4.16204
-4.16209
-4.16215
-4.16223
-4.16231
-4.16242
-4.16253
-4.16266
-4.16279
-4.16292
-4.16299
-4.15787
-4.15786
-4.15786
-4.15786
-4.15786
-4.15786
-4.15785
-4.15785
-4.15786
-4.15786
-4.15786
-4.15787
-4.15788
-4.15789
-4.15791
-4.15794
-4.15797
-4.15802
-4.15807
-4.15815
-4.15824
-4.15836
-4.1585
-4.15868
-4.15892
-4.15923
-4.1596
-4.16017
-4.15422
-4.15422
-4.15422
-4.15422
-4.15421
-4.15421
-4.15421
-4.1542
-4.1542
-4.1542
-4.15419
-4.15418
-4.15417
-4.15416
-4.15415
-4.15414
-4.15412
-4.15409
-4.15406
-4.15403
-4.15398
-4.15392
-4.15384
-4.15374
-4.15362
-4.15345
-4.15327
-4.15295
-4.15042
-4.15041
-4.15041
-4.15041
-4.1504
-4.1504
-4.1504
-4.1504
-4.1504
-4.1504
-4.1504
-4.15041
-4.15042
-4.15043
-4.15044
-4.15046
-4.15048
-4.15051
-4.15055
-4.15059
-4.15064
-4.1507
-4.15078
-4.15086
-4.15095
-4.15106
-4.15117
-4.1512
-117.295
-117.296
-117.296
-117.297
-117.297
-117.297
-117.296
-117.294
-117.291
-117.288
-117.283
-117.278
-117.273
-117.268
-117.263
-117.259
-117.255
-117.252
-117.249
-117.248
-117.248
-117.248
-117.25
-117.254
-117.259
-117.265
-117.274
-117.285
-117.028
-117.029
-117.029
-117.029
-117.029
-117.029
-117.029
-117.028
-117.027
-117.025
-117.022
-117.019
-117.017
-117.015
-117.013
-117.013
-117.014
-117.017
-117.021
-117.028
-117.037
-117.049
-117.064
-117.083
-117.107
-117.135
-117.169
-117.211
-116.666
-116.666
-116.666
-116.666
-116.666
-116.667
-116.667
-116.667
-116.668
-116.668
-116.668
-116.669
-116.67
-116.671
-116.674
-116.678
-116.683
-116.689
-116.698
-116.709
-116.723
-116.739
-116.76
-116.784
-116.812
-116.843
-116.884
-116.925
-119.48
-119.479
-119.478
-119.477
-119.477
-119.478
-119.481
-119.487
-119.497
-119.511
-119.531
-119.556
-119.587
-119.622
-119.661
-119.704
-119.751
-119.801
-119.856
-119.915
-119.979
-120.046
-120.116
-120.189
-120.263
-120.337
-120.428
-120.489
-118.796
-118.796
-118.795
-118.794
-118.794
-118.795
-118.797
-118.801
-118.809
-118.82
-118.836
-118.855
-118.879
-118.906
-118.937
-118.969
-119.004
-119.042
-119.082
-119.125
-119.17
-119.217
-119.265
-119.314
-119.36
-119.408
-119.462
-119.479
-111.529
-111.529
-111.529
-111.53
-111.53
-111.531
-111.533
-111.534
-111.535
-111.537
-111.538
-111.54
-111.542
-111.545
-111.549
-111.556
-111.565
-111.577
-111.592
-111.611
-111.633
-111.659
-111.689
-111.723
-111.766
-111.821
-111.886
-112.001
-110.991
-110.991
-110.99
-110.991
-110.991
-110.992
-110.993
-110.994
-110.995
-110.996
-110.997
-110.999
-111.001
-111.005
-111.011
-111.019
-111.031
-111.046
-111.065
-111.087
-111.113
-111.144
-111.178
-111.218
-111.263
-111.315
-111.374
-111.465
-110.297
-110.296
-110.295
-110.295
-110.295
-110.295
-110.295
-110.295
-110.296
-110.297
-110.298
-110.3
-110.304
-110.309
-110.318
-110.33
-110.345
-110.365
-110.388
-110.415
-110.446
-110.481
-110.52
-110.564
-110.613
-110.665
-110.719
-110.798
-109.541
-109.541
-109.54
-109.539
-109.538
-109.537
-109.536
-109.536
-109.536
-109.536
-109.537
-109.54
-109.546
-109.554
-109.565
-109.58
-109.599
-109.621
-109.647
-109.676
-109.709
-109.744
-109.78
-109.818
-109.857
-109.893
-109.932
-109.99
-108.862
-108.861
-108.861
-108.859
-108.858
-108.857
-108.857
-108.857
-108.859
-108.862
-108.868
-108.876
-108.888
-108.903
-108.923
-108.948
-108.977
-109.009
-109.045
-109.084
-109.125
-109.168
-109.214
-109.263
-109.313
-109.364
-109.422
-109.483
-122.272
-122.274
-122.275
-122.276
-122.277
-122.278
-122.279
-122.28
-122.281
-122.281
-122.282
-122.282
-122.282
-122.281
-122.279
-122.275
-122.27
-122.263
-122.253
-122.241
-122.226
-122.207
-122.186
-122.163
-122.135
-122.113
-122.066
-122.042
-126.693
-126.692
-126.691
-126.691
-126.691
-126.692
-126.696
-126.702
-126.712
-126.726
-126.748
-126.777
-126.816
-126.867
-126.931
-127.009
-127.102
-127.213
-127.343
-127.493
-127.664
-127.858
-128.073
-128.308
-128.567
-128.845
-129.095
-129.474
-123.281
-123.283
-123.285
-123.286
-123.287
-123.287
-123.286
-123.283
-123.277
-123.269
-123.259
-123.244
-123.226
-123.203
-123.176
-123.144
-123.108
-123.068
-123.026
-122.981
-122.934
-122.885
-122.834
-122.781
-122.722
-122.673
-122.592
-122.566
-124.365
-124.367
-124.368
-124.37
-124.371
-124.37
-124.367
-124.36
-124.349
-124.332
-124.31
-124.281
-124.246
-124.202
-124.15
-124.091
-124.025
-123.954
-123.88
-123.802
-123.722
-123.64
-123.557
-123.474
-123.392
-123.317
-123.223
-123.173
-174.483
-174.483
-174.484
-174.485
-174.487
-174.49
-174.494
-174.499
-174.506
-174.514
-174.524
-174.535
-174.549
-174.564
-174.582
-174.603
-174.627
-174.653
-174.683
-174.717
-174.755
-174.797
-174.844
-174.896
-174.954
-175.02
-175.093
-175.166
-176.276
-176.276
-176.277
-176.278
-176.28
-176.284
-176.288
-176.294
-176.301
-176.31
-176.32
-176.332
-176.347
-176.364
-176.383
-176.406
-176.431
-176.46
-176.493
-176.53
-176.572
-176.619
-176.671
-176.73
-176.796
-176.869
-176.952
-177.039
-177.926
-177.927
-177.927
-177.928
-177.931
-177.935
-177.94
-177.946
-177.955
-177.965
-177.976
-177.99
-178.007
-178.025
-178.047
-178.071
-178.099
-178.131
-178.167
-178.207
-178.252
-178.303
-178.359
-178.422
-178.493
-178.57
-178.655
-178.752
-179.402
-179.402
-179.402
-179.403
-179.406
-179.41
-179.415
-179.423
-179.431
-179.442
-179.455
-179.47
-179.487
-179.507
-179.53
-179.556
-179.586
-179.62
-179.657
-179.7
-179.747
-179.8
-179.858
-179.924
-179.996
-180.075
-180.162
-180.252
-123.141
-123.139
-123.138
-123.137
-123.137
-123.138
-123.141
-123.146
-123.154
-123.164
-123.179
-123.198
-123.223
-123.252
-123.288
-123.33
-123.378
-123.432
-123.493
-123.56
-123.632
-123.707
-123.786
-123.866
-123.949
-124.031
-124.12
-124.173
-120.485
-120.486
-120.487
-120.488
-120.489
-120.49
-120.493
-120.496
-120.502
-120.509
-120.519
-120.532
-120.548
-120.569
-120.593
-120.62
-120.648
-120.677
-120.708
-120.739
-120.77
-120.799
-120.826
-120.85
-120.871
-120.894
-120.898
-120.924
-127.108
-127.106
-127.102
-127.099
-127.097
-127.097
-127.101
-127.11
-127.127
-127.153
-127.19
-127.239
-127.301
-127.38
-127.476
-127.586
-127.711
-127.846
-127.995
-128.162
-128.35
-128.558
-128.786
-129.046
-129.313
-129.634
-129.956
-130.239
-121.439
-121.441
-121.442
-121.443
-121.444
-121.445
-121.446
-121.449
-121.452
-121.457
-121.462
-121.469
-121.477
-121.485
-121.494
-121.502
-121.51
-121.517
-121.521
-121.524
-121.523
-121.518
-121.51
-121.498
-121.477
-121.462
-121.42
-121.409
-121.452
-121.451
-121.451
-121.45
-121.45
-121.452
-121.456
-121.462
-121.473
-121.488
-121.509
-121.537
-121.571
-121.614
-121.664
-121.723
-121.789
-121.863
-121.942
-122.026
-122.114
-122.205
-122.298
-122.393
-122.489
-122.588
-122.692
-122.779
-120.812
-120.812
-120.811
-120.811
-120.811
-120.812
-120.814
-120.82
-120.829
-120.842
-120.86
-120.885
-120.916
-120.954
-120.998
-121.05
-121.109
-121.173
-121.243
-121.316
-121.391
-121.469
-121.546
-121.625
-121.703
-121.785
-121.864
-121.923
-626.184
-626.135
-626.02
-625.82
-625.573
-625.346
-625.266
-625.508
-625.975
-625.933
-623.791
-619.08
-612.118
-603.903
-595.077
-585.92
-576.501
-566.854
-556.987
-546.89
-536.601
-526.129
-515.558
-504.845
-494.077
-483.246
-472.173
-461.453
-599.665
-599.508
-599.234
-598.862
-598.429
-597.923
-597.304
-596.618
-595.82
-594.168
-590.771
-585.773
-579.703
-572.917
-565.658
-558.129
-550.446
-542.654
-534.678
-526.426
-517.899
-509.093
-500.069
-490.745
-481.292
-471.442
-461.543
-451.298
-600.816
-600.653
-600.39
-600.023
-599.44
-598.325
-596.088
-593.259
-590.619
-587.171
-582.419
-576.786
-570.666
-564.211
-557.505
-550.544
-543.315
-535.801
-528.008
-519.955
-511.658
-503.12
-494.362
-485.354
-476.17
-466.636
-457.11
-446.973
-621.786
-621.751
-621.685
-621.474
-620.84
-619.108
-615.415
-610.108
-604.475
-598.408
-591.715
-584.583
-577.198
-569.652
-561.942
-554.069
-546.022
-537.793
-529.382
-520.79
-512.029
-503.099
-494.02
-484.765
-475.381
-465.784
-456.182
-446.141
-625.756
-625.722
-625.585
-625.103
-623.911
-621.626
-618.104
-613.282
-607.155
-600.264
-593.004
-585.441
-577.682
-569.762
-561.699
-553.485
-545.109
-536.559
-527.833
-518.933
-509.869
-500.64
-491.253
-481.683
-471.972
-462.041
-452.011
-441.794
-639.054
-638.963
-638.576
-637.449
-635.175
-631.52
-626.534
-620.404
-613.53
-606.143
-598.344
-590.379
-582.268
-574.018
-565.625
-557.072
-548.347
-539.442
-530.368
-521.135
-511.757
-502.24
-492.59
-482.798
-472.9
-462.817
-452.768
-442.403
-648.627
-648.449
-647.75
-646.059
-642.975
-638.396
-632.484
-625.535
-617.864
-609.75
-601.415
-592.897
-584.252
-575.49
-566.595
-557.548
-548.333
-538.95
-529.406
-519.711
-509.875
-499.9
-489.785
-479.525
-469.126
-458.563
-447.939
-437.17
-653.146
-652.748
-651.635
-649.483
-645.927
-640.796
-634.373
-626.979
-618.957
-610.579
-601.97
-593.224
-584.371
-575.409
-566.316
-557.069
-547.658
-538.086
-528.369
-518.522
-508.559
-498.482
-488.298
-478.007
-467.612
-457.099
-446.632
-435.843
-650.713
-650.361
-649.071
-646.559
-642.696
-637.311
-630.619
-622.989
-614.757
-606.185
-597.416
-588.51
-579.505
-570.386
-561.128
-551.703
-542.104
-532.335
-522.409
-512.34
-502.137
-491.801
-481.337
-470.742
-460.002
-449.159
-438.245
-427.193
-120.189
-120.19
-120.191
-120.191
-120.192
-120.195
-120.2
-120.207
-120.218
-120.234
-120.255
-120.28
-120.31
-120.342
-120.378
-120.418
-120.461
-120.505
-120.552
-120.599
-120.645
-120.691
-120.735
-120.777
-120.815
-120.853
-120.882
-120.924
-125.143
-125.144
-125.145
-125.148
-125.151
-125.152
-125.151
-125.143
-125.128
-125.105
-125.073
-125.034
-124.987
-124.932
-124.869
-124.797
-124.719
-124.636
-124.549
-124.46
-124.37
-124.279
-124.189
-124.1
-124.015
-123.939
-123.847
-123.788
-120.398
-120.398
-120.398
-120.397
-120.398
-120.399
-120.402
-120.407
-120.416
-120.429
-120.447
-120.471
-120.499
-120.533
-120.572
-120.616
-120.665
-120.717
-120.773
-120.831
-120.89
-120.951
-121.011
-121.071
-121.129
-121.189
-121.238
-121.292
-114.138
-114.138
-114.139
-114.139
-114.14
-114.14
-114.141
-114.141
-114.141
-114.141
-114.141
-114.141
-114.14
-114.139
-114.138
-114.137
-114.136
-114.135
-114.134
-114.134
-114.134
-114.134
-114.135
-114.137
-114.139
-114.143
-114.151
-114.159
-114.288
-114.288
-114.289
-114.289
-114.29
-114.29
-114.29
-114.291
-114.291
-114.291
-114.29
-114.289
-114.288
-114.286
-114.285
-114.283
-114.28
-114.278
-114.276
-114.274
-114.273
-114.271