/*--------------------------------*- C++ -*----------------------------------*\
| =========                 |                                                 |
| \\      /  F ield         | OpenFOAM: The Open Source CFD Toolbox           |
|  \\    /   O peration     | Version:  2412                                  |
|   \\  /    A nd           | Website:  www.openfoam.com                      |
|    \\/     M anipulation  |                                                 |
\*---------------------------------------------------------------------------*/
FoamFile
{
    version     2.0;
    format      ascii;
    arch        "LSB;label=32;scalar=64";
    class       volVectorField;
    location    "3500";
    object      wallShearStress;
}
// * * * * * * * * * * * * * * * * * * * * * * * * * * * * * * * * * * * * * //

dimensions      [0 2 -2 0 0 0 0];

internalField   uniform (0 0 0);

boundaryField
{
    frontAndBack
    {
        type            empty;
    }
    symmetry
    {
        type            symmetryPlane;
    }
    outlet
    {
        type            calculated;
        value           uniform (0 0 0);
    }
    wall
    {
        type            calculated;
        value           nonuniform List<vector> 
1155
(
(0.0223605 -0.00132886 -1.94203e-23)
(0.0221525 -0.00128782 2.48059e-21)
(0.0220021 -0.00125169 9.6799e-24)
(0.0218458 -0.00121459 2.47049e-21)
(0.0216697 -0.00117728 2.92867e-27)
(0.0215195 -0.00114225 -2.45116e-21)
(0.0213695 -0.00110729 -1.85091e-26)
(0.0212316 -0.00107304 -9.58178e-24)
(0.0210355 -0.00103595 -2.45615e-21)
(0.0208849 -0.0010037 2.45184e-21)
(0.0207521 -0.0009704 5.51013e-40)
(0.776767 -0.0127493 0)
(1.00724 0.00105852 0)
(0.883973 0.00170034 0)
(0.770527 0.00464069 0)
(0.559243 0.00584603 0)
(0.412191 0.00179596 0)
(-0.0872756 -0.000267139 0)
(-0.0749438 -0.000234459 0)
(-0.062539 -0.000248861 0)
(-0.0499021 -0.000319355 0)
(-0.0325145 -0.000378647 0)
(-0.383696 0.000529124 0)
(-0.414275 0.000448477 0)
(-0.438902 0.000344626 0)
(-0.457917 0.000181267 0)
(-0.468696 4.64594e-06 0)
(-0.473616 -0.000133952 0)
(-0.715664 0.00415573 0)
(-0.842756 0.00250922 0)
(-0.898524 0.000548291 0)
(-0.859029 -0.00206238 0)
(-0.74167 -0.00366018 0)
(-0.603123 -0.00329612 0)
(0.747801 -0.0885169 -1.82283e-19)
(0.767715 -0.0921291 1.86165e-19)
(0.788526 -0.0957909 9.113e-25)
(0.809245 -0.0995985 3.86782e-19)
(0.829376 -0.103231 7.9083e-19)
(0.843087 -0.106081 -7.92071e-22)
(0.850792 -0.108252 4.10452e-19)
(0.0166446 -9.05827e-05 -5.84115e-22)
(0.0166774 -7.01501e-05 5.73972e-42)
(0.0166501 -5.04405e-05 -9.25781e-39)
(0.0167173 -3.18695e-05 -7.30668e-23)
(0.0168004 -1.27884e-05 3.65195e-23)
(0.0169721 -4.35475e-06 0)
(0.0171658 -3.81525e-06 0)
(0.0173188 -3.83e-06 0)
(0.0174961 -3.46304e-06 0)
(0.0176223 -3.392e-06 0)
(0.0178027 -3.3271e-06 0)
(0.164004 -0.000360922 0)
(0.17779 -0.000383155 0)
(0.193344 -0.000412558 0)
(0.209107 -0.000426278 0)
(0.227911 -0.000487548 0)
(0.0110256 -0.00729947 3.02381e-25)
(0.0120908 -0.00781189 -1.21068e-22)
(0.0131431 -0.00829485 -1.21638e-22)
(0.0142486 -0.00878854 -1.09808e-25)
(0.0153139 -0.00923771 -3.11193e-20)
(0.0164053 -0.00968334 4.70198e-38)
(0.0174637 -0.0100921 3.13612e-20)
(0.0185268 -0.0104878 1.55513e-25)
(0.019571 -0.0108574 -3.14627e-20)
(-0.44295 -0.00130572 0)
(-0.377131 -0.000828493 0)
(0.0178848 -1.76561e-06 0)
(0.0179952 -3.09381e-06 0)
(0.0181183 -1.97124e-06 0)
(0.0181985 -2.45373e-06 0)
(0.018306 -2.10947e-06 0)
(0.0184095 -2.37489e-06 0)
(0.0184788 -1.11783e-06 0)
(0.0185453 -2.32486e-06 0)
(0.0186468 -1.00612e-06 0)
(0.0186534 -1.13135e-06 0)
(0.018742 -1.61825e-06 0)
(-0.421285 8.21986e-05 0)
(-0.424345 0.000175472 0)
(-0.429025 0.000128112 0)
(-0.476939 2.37702e-05 0)
(-0.478648 -0.0001347 0)
(-0.241884 0.000367963 0)
(-0.254312 0.000445941 0)
(-0.269618 0.000391886 0)
(-0.283029 0.000210186 0)
(-0.291428 9.19928e-06 0)
(-0.299573 -0.000890211 0)
(-0.320204 0.000327334 0)
(-0.26003 -0.000700125 0)
(-0.23144 -0.000143879 0)
(0.593936 0.000185446 0)
(0.589557 0.000265205 0)
(0.582364 0.000375829 0)
(0.5706 0.000485336 0)
(-0.472109 0.00046631 0)
(-0.410249 -0.000801522 0)
(-0.274479 0.000647349 0)
(-0.340209 -0.00091317 0)
(-0.499006 -5.57558e-05 0)
(-0.496073 -0.000338848 0)
(-0.0408845 1.12531 7.05297e-38)
(-0.00503679 -0.316491 -6.09012e-23)
(0.0343296 0.108247 -6.52486e-19)
(-0.0847663 -0.412942 -6.56025e-21)
(0.114863 0.306507 -1.25129e-22)
(0.355608 0.76135 2.81624e-18)
(0.785507 1.34827 2.81118e-18)
(1.3775 1.74084 4.55953e-22)
(1.71031 1.94983 5.51545e-18)
(-0.465896 -0.000840386 0)
(-0.229026 0.000648834 0)
(-0.484981 -0.000504181 0)
(-0.210055 -0.000110832 0)
(-0.204461 -9.8004e-05 0)
(-0.199751 -6.99908e-05 0)
(-0.196329 -3.16704e-05 0)
(-0.195008 4.37292e-05 0)
(-0.305799 0.00135725 0)
(-0.384215 0.000797274 0)
(-0.356654 0.00124882 0)
(-0.446878 0.000667438 0)
(-0.265826 0.000801644 0)
(-0.416566 0.000853952 0)
(-0.490575 0.000220372 0)
(-0.424743 0.000538584 0)
(-0.293659 0.000710561 0)
(-0.0857131 0.000769381 0)
(-0.114881 0.000653007 0)
(-0.127882 -0.000228174 0)
(-0.111269 -0.0010921 0)
(-0.0633879 -0.000988966 0)
(-0.17134 0.00218221 0)
(-0.332209 0.00053821 0)
(-0.315188 -0.000224233 0)
(-0.220481 0.000638452 0)
(-0.267476 -0.000247231 0)
(-0.209131 0.000125569 0)
(-0.19715 1.31376e-05 0)
(-0.247196 0.00260601 0)
(-0.371854 -0.000330297 0)
(-0.130419 -0.00471688 0)
(0.0876743 -0.0181324 0)
(0.330267 -0.00304366 0)
(0.37775 -0.00116032 0)
(0.032284 -0.00483096 -2.30818e-23)
(0.0321372 -0.00475398 -1.17978e-20)
(0.0320018 -0.00467968 2.30041e-23)
(0.0318578 -0.00460472 -1.17179e-20)
(0.0317107 -0.00452936 0)
(0.0314695 -0.00444097 2.26926e-23)
(0.0312502 -0.00435999 -1.16223e-20)
(0.0310867 -0.00428647 3.96729e-37)
(0.030925 -0.00421452 9.97139e-27)
(0.0307858 -0.00414528 6.94719e-40)
(0.0685734 0.001219 0)
(0.0144265 0.00182966 0)
(-0.0399445 0.00159273 0)
(-0.0917298 0.00152902 0)
(-0.141881 0.00128832 0)
(-0.186628 0.000907125 0)
(-0.0499517 -0.000393553 0)
(-0.027821 0.000246156 0)
(-0.0346362 0.000566839 0)
(-0.0556879 0.000454206 0)
(-0.0725314 0.000429014 0)
(0.519721 -0.000270979 0)
(0.531394 -0.000239089 0)
(0.542738 -0.000199042 0)
(0.552674 -0.00017326 0)
(0.562884 -0.000186089 0)
(-0.206386 0.00169315 0)
(-0.275019 0.000780856 0)
(-0.31552 1.72499e-05 0)
(-0.32482 -0.000606712 0)
(-0.315298 -0.00080036 0)
(0.00310824 -0.0026702 -6.0449e-20)
(0.00386084 -0.0032037 1.18525e-22)
(0.0045175 -0.00363246 1.21304e-19)
(0.00539407 -0.00420363 6.10497e-20)
(0.00614788 -0.0046514 6.10985e-20)
(0.0071006 -0.00522202 -3.0753e-20)
(0.00800617 -0.00572579 3.08337e-20)
(0.00897669 -0.00625282 3.06765e-20)
(0.00999206 -0.00678182 2.41078e-22)
(-0.47899 0.0361244 -2.45632e-22)
(-0.58763 0.0447051 2.45047e-22)
(-0.701206 0.0534345 2.32691e-22)
(-0.798563 0.060692 -2.32254e-22)
(-0.859085 0.0648036 -1.17549e-38)
(-0.862212 0.0644519 -1.104e-19)
(-0.805807 0.0597041 3.55499e-24)
(-0.370414 0.0725676 1.23171e-23)
(-0.0734845 0.0067555 -1.33503e-21)
(0.0703302 -0.0134222 -4.38483e-21)
(-0.163377 0.0399799 3.08929e-21)
(-0.183057 0.0433829 -2.52288e-23)
(-0.242217 0.0606927 1.88079e-37)
(-0.500957 0.118449 -3.67833e-19)
(-0.0322862 -0.000257166 0)
(-0.0190883 -2.97282e-05 0)
(-0.0185154 0.000183523 0)
(-0.0274885 0.000141532 0)
(-0.0350052 4.30918e-06 0)
(0.022349 -2.45727e-06 0)
(0.0224642 -2.47286e-06 0)
(0.0225829 -2.61783e-06 0)
(0.0227077 -2.65188e-06 0)
(0.0228323 -2.71017e-06 0)
(0.0229602 -2.77135e-06 0)
(0.0230937 -2.93336e-06 0)
(0.0232321 -2.97302e-06 0)
(0.0233724 -3.11579e-06 0)
(0.0235215 -3.21967e-06 0)
(0.0236711 -3.23598e-06 0)
(0.0238237 -3.30176e-06 0)
(0.0239799 -3.40801e-06 0)
(0.0241424 -3.55399e-06 0)
(0.317547 0.00053743 0)
(0.305458 0.000295469 0)
(0.306028 -0.000310008 0)
(0.308649 0.000168003 0)
(0.310171 0.000105373 0)
(0.307597 0.000233152 0)
(0.0285918 -0.0132471 1.26656e-25)
(0.0293448 -0.0133759 3.16364e-20)
(0.0300212 -0.0134662 3.15592e-20)
(0.0306875 -0.0135499 -3.14773e-20)
(0.031335 -0.0136224 3.14523e-20)
(0.0319442 -0.0136756 6.16436e-23)
(0.0325144 -0.0137108 -3.15032e-36)
(0.0330544 -0.0137319 -3.14133e-20)
(0.03355 -0.0137341 -3.14942e-20)
(0.0388962 -0.0122354 2.99895e-20)
(0.0389703 -0.0121117 0)
(0.0390371 -0.0119887 -1.49925e-26)
(0.0390957 -0.0118637 5.94151e-20)
(0.0390653 -0.0117155 -2.35099e-38)
(0.0391339 -0.011601 -3.74271e-36)
(0.0391662 -0.0114745 1.60712e-37)
(0.0391791 -0.0113469 -5.71715e-23)
(0.0392109 -0.0112246 5.71731e-23)
(-0.356281 -0.000220151 0)
(-0.347702 -0.000253149 0)
(-0.337066 -0.000394321 0)
(-0.326006 -0.000588637 0)
(0.0274116 -6.05896e-06 0)
(0.027697 -6.2913e-06 0)
(0.0279968 -6.60101e-06 0)
(0.0283094 -6.873e-06 0)
(0.0286357 -7.20399e-06 0)
(0.0289771 -7.51141e-06 0)
(0.0293334 -7.87063e-06 0)
(0.0297063 -8.21009e-06 0)
(0.0300954 -8.61537e-06 0)
(0.0305044 -9.02481e-06 0)
(0.0309323 -9.48596e-06 0)
(0.0313833 -9.96887e-06 0)
(0.0318554 -1.04765e-05 0)
(0.0323545 -1.10777e-05 0)
(0.0328801 -1.16599e-05 0)
(-0.305603 -0.000202743 0)
(-0.296997 -0.000195011 0)
(-0.28785 -0.000226533 0)
(-0.27788 -0.000239543 0)
(-0.226704 0.000949526 0)
(-0.259911 0.000758344 0)
(-0.2876 0.000569725 0)
(-0.312087 0.000347288 0)
(-0.332954 0.000161598 0)
(-0.354385 0.000262358 0)
(0.0874204 -0.000227248 0)
(0.0981633 -0.000323907 0)
(0.115466 -0.000441119 0)
(0.134185 -0.000451135 0)
(0.149989 -0.00039451 0)
(-0.0506081 0.000345523 0)
(-0.0680714 0.000584539 0)
(-0.0873674 0.000374275 0)
(-0.0943206 4.11446e-05 0)
(-0.0910437 -0.000541867 0)
(0.0194544 -7.3179e-07 0)
(0.0194352 6.52152e-07 0)
(0.0194399 -9.71659e-07 0)
(0.0194779 8.63392e-08 0)
(0.0194593 -4.8829e-07 0)
(0.0194974 -1.71398e-07 0)
(0.0194833 -3.00791e-08 0)
(0.0194927 -7.31486e-08 0)
(0.0194932 -8.64259e-08 0)
(0.019494 3.49804e-08 0)
(0.0194952 -1.22914e-07 0)
(-0.291875 -0.000492682 0)
(-0.267226 -0.000983351 0)
(-0.243956 -0.000858604 0)
(-0.214794 -0.000657159 0)
(-0.187756 -0.000458595 0)
(0.498239 -0.374467 1.80301e-18)
(0.47508 -0.351928 2.42125e-19)
(0.285258 -0.210282 -7.42127e-20)
(-0.755518 0.659025 1.71038e-18)
(-1.42277 1.18206 -2.92758e-21)
(-1.02831 0.789813 -1.36966e-24)
(0.596009 -0.520031 8.18787e-22)
(0.0123669 0.0305283 -2.09891e-22)
(-1.07915 1.03151 1.82505e-18)
(0.000252336 0.00256839 -1.17549e-38)
(-5.85402e-05 0.00223347 1.80723e-21)
(-0.000176434 0.00230174 -1.59059e-37)
(-0.00030652 0.00235851 -2.93874e-39)
(-0.000396356 0.0021936 1.44989e-20)
(-0.000532857 0.00229444 -2.90435e-20)
(-0.000598746 0.00211618 -2.90207e-20)
(-0.000712082 0.00213791 -1.13751e-22)
(-0.000768484 0.00200589 -2.91031e-20)
(0.0365108 -0.0075155 1.31194e-20)
(0.0363683 -0.00740608 5.097e-23)
(0.0362516 -0.00730341 -5.09712e-23)
(0.0361111 -0.0071969 -2.59551e-20)
(0.0359758 -0.00709341 -1.29308e-20)
(0.0358389 -0.00699041 -5.02461e-23)
(0.0356926 -0.00688722 1.28877e-20)
(0.0355552 -0.00678707 5.87747e-39)
(0.0354148 -0.00668766 -0)
(2.12052 1.9717 5.46267e-18)
(2.19268 1.68957 6.01853e-36)
(1.70418 1.02765 -6.2543e-19)
(0.85925 0.486316 -2.37908e-18)
(-0.427327 -0.15056 1.50463e-36)
(-0.6572 -0.167466 -5.84307e-21)
(-0.724871 -0.0273569 2.14567e-18)
(-2.18809 0.102267 -8.08535e-19)
(-0.555663 0.346807 2.69443e-19)
(-0.4884 0.311184 -6.14203e-22)
(-0.444926 0.281188 -6.13519e-19)
(-0.270773 0.17384 3.76158e-37)
(-0.106841 0.0665722 -8.01511e-19)
(0.0344219 -0.0304421 0)
(0.185898 -0.137659 8.4415e-19)
(0.327513 -0.244753 -8.69181e-19)
(-0.34856 0.0658345 -3.88123e-19)
(-0.325788 0.061873 0)
(-0.275849 0.0500541 1.94686e-23)
(-0.205873 0.035313 1.66825e-19)
(-0.00858307 -0.0050524 3.88887e-19)
(0.231799 -0.0479209 -3.9699e-19)
(0.165798 -0.0100559 -3.60678e-22)
(-0.316308 0.0757067 -1.54468e-21)
(-0.0145445 0.00543668 -6.85934e-19)
(-0.0406529 0.0138486 7.52316e-37)
(-0.0723107 0.0240292 6.79119e-19)
(-0.100078 0.032799 6.7782e-19)
(-0.110332 0.0356815 3.76158e-37)
(-0.0904772 0.0293486 -1.52627e-20)
(-0.0713519 0.0231608 -1.54807e-21)
(0.852816 -0.109676 -4.1755e-19)
(0.84802 -0.110211 8.20571e-22)
(0.837144 -0.109966 -8.45593e-22)
(0.820296 -0.108879 8.45837e-22)
(0.798173 -0.107056 -2.33399e-24)
(0.770653 -0.104416 -8.76168e-22)
(0.0469319 -3.6328e-05 0)
(0.0486952 -4.07335e-05 0)
(0.0506728 -4.59568e-05 0)
(0.0529157 -5.25753e-05 0)
(0.0554915 -6.07873e-05 0)
(0.0584814 -7.14114e-05 0)
(0.062019 -8.56306e-05 0)
(0.0662903 -0.000105168 0)
(0.0715815 -0.000133342 0)
(0.0783672 -0.000176473 0)
(0.0874728 -0.000247915 0)
(0.100493 -0.000372245 0)
(0.120252 -0.000645344 0)
(0.156315 -0.00130621 0)
(0.170435 -0.0168208 2.38368e-22)
(0.226754 -0.0212216 -2.38117e-22)
(0.261089 -0.0242944 -1.26032e-19)
(0.276618 -0.025734 -2.5719e-19)
(0.294729 -0.0287116 1.30575e-19)
(0.355485 -0.0357068 0)
(0.0195046 -5.44053e-07 0)
(0.0195345 -7.50873e-07 0)
(0.0195723 -7.0762e-07 0)
(0.0196066 -8.21627e-07 0)
(0.0196473 -7.63057e-07 0)
(0.0196817 -7.43863e-07 0)
(0.0197181 -9.04523e-07 0)
(0.0197721 -1.16659e-06 0)
(0.0198206 -9.45014e-07 0)
(0.0198681 -1.08804e-06 0)
(0.0199168 -9.84761e-07 0)
(0.019969 -1.21583e-06 0)
(0.0200231 -1.00943e-06 0)
(0.0200715 -1.17706e-06 0)
(-0.479126 0.0174153 -1.07722e-36)
(-0.470574 0.0176648 1.62507e-41)
(-0.460851 0.0178344 1.18284e-39)
(-0.44927 0.0179204 0)
(-0.437385 0.0179933 -6.53301e-20)
(-0.42479 0.0179868 -6.50507e-20)
(-0.213532 0.000756529 -9.18355e-41)
(-0.199268 0.00125383 -1.50562e-36)
(-0.197584 0.00175848 -9.02874e-43)
(-0.206577 0.00223259 -8.41268e-26)
(-0.218369 0.00277299 4.66792e-26)
(-0.234513 0.0032284 -7.78705e-23)
(-0.90155 2.12139 -2.93874e-39)
(0.0485614 -0.213101 2.77885e-21)
(0.301058 -0.995162 -1.46218e-18)
(0.0660017 -0.810121 -4.81279e-19)
(1.3296 -6.67857 9.46732e-19)
(1.12719 -5.86708 -1.03106e-18)
(0.448374 -2.24995 3.76426e-22)
(0.0490621 -0.0651445 7.08904e-19)
(-0.35835 0.000706469 0)
(0.427382 -0.211103 -1.76548e-20)
(-0.309828 0.192403 -7.43969e-19)
(-0.766903 0.424482 -1.38505e-18)
(-0.560438 0.30376 8.50507e-23)
(-0.231534 0.10157 -5.91868e-19)
(0.541226 -0.31856 2.84584e-21)
(0.334373 -0.190669 -1.42794e-20)
(-0.107112 0.0934976 -1.88079e-37)
(0.0372446 -0.0132816 -3.0831e-20)
(0.0374782 -0.0131922 -3.0696e-20)
(0.0377134 -0.0131045 -5.99944e-23)
(0.0379126 -0.0130064 -3.05384e-20)
(0.0381073 -0.0129084 3.04564e-20)
(0.0382801 -0.012805 -3.04321e-20)
(0.0384394 -0.0126987 -5.91848e-23)
(0.0385731 -0.0125859 5.91864e-23)
(0.0386998 -0.0124732 -3.01124e-20)
(0.0388001 -0.0123536 -5.88402e-23)
(-0.359065 -0.000880575 0)
(-0.33285 -0.000840109 0)
(-0.311273 -0.000384588 9.09673e-41)
(-0.293612 0.000159445 3.82036e-38)
(-0.264758 4.18108e-05 4.76951e-21)
(-0.234113 0.000460834 -9.56652e-21)
(-0.323578 0.0164294 2.50121e-22)
(-0.305476 0.0155768 4.15811e-21)
(-0.289674 0.0150805 3.67342e-40)
(-0.265368 0.0141063 2.50919e-22)
(-0.234262 0.0125919 -5.03986e-22)
(-0.1998 0.010971 -6.45195e-20)
(-0.169802 0.00974728 -2.55906e-22)
(-0.378813 -7.80316e-05 0)
(-0.374399 -0.000145358 0)
(-0.369165 -0.000157699 0)
(-0.363674 -0.0001922 0)
(0.296512 0.000386832 0)
(0.276721 0.000557277 0)
(0.247799 0.00074448 0)
(0.211002 0.000894936 0)
(0.167851 0.00100912 0)
(0.119414 0.00105022 0)
(0.555874 0.000562533 0)
(0.537276 0.000687211 0)
(0.514315 0.000783842 0)
(0.487894 0.000940569 0)
(0.452451 0.00127226 0)
(0.0288395 -0.00334403 -5.57398e-21)
(0.0286502 -0.00327805 4.30782e-23)
(0.0284868 -0.00321851 5.47632e-21)
(0.0283583 -0.00316105 -5.13397e-27)
(0.0281979 -0.00310226 -5.46531e-21)
(0.0280764 -0.00304707 -5.44893e-21)
(0.0279164 -0.00298861 -5.43309e-21)
(0.0277333 -0.00292773 5.4168e-21)
(0.027556 -0.00287013 0)
(0.0274105 -0.00281529 -2.10078e-23)
(-0.213405 0.000116849 0)
(-0.218094 0.000114065 0)
(-0.465687 0.000250092 0)
(-0.448784 0.000371111 0)
(-0.475636 -0.000264044 0)
(-0.46729 -0.00035739 0)
(-0.453566 -0.000458924 0)
(-0.437238 -0.000338464 0)
(-0.426238 -0.000162934 0)
(0.0391817 -0.0110886 -5.67844e-23)
(0.0391968 -0.0109655 -2.8967e-20)
(0.039078 -0.010808 2.88657e-20)
(0.0390816 -0.0106899 -2.87682e-20)
(0.0390629 -0.0105631 -2.87218e-20)
(0.0390105 -0.0104322 1.17549e-38)
(0.038997 -0.0103113 6.65807e-39)
(0.0389167 -0.0101763 -5.54078e-23)
(0.0388658 -0.0100501 2.83731e-20)
(0.0387719 -0.00991538 -2.82167e-20)
(-0.222055 8.98742e-05 0)
(-0.225666 8.7857e-05 0)
(-0.228808 5.74519e-05 0)
(-0.23065 2.96626e-05 0)
(-0.231263 -1.28483e-05 0)
(-0.384419 -5.67603e-06 0)
(-0.382465 1.55885e-06 0)
(-0.381358 1.36823e-05 0)
(-0.380894 -8.66873e-06 0)
(-0.240815 0.00111015 0)
(0.0272617 -0.00276087 -5.32847e-21)
(0.0270695 -0.00270144 -5.97128e-26)
(0.0268907 -0.00264689 -4.17126e-23)
(0.0267537 -0.00259495 2.08297e-23)
(0.0265885 -0.0025424 5.33111e-21)
(0.0264772 -0.00249349 -1.03863e-23)
(0.0262536 -0.00243518 -1.03286e-23)
(0.0261136 -0.00238726 1.0273e-23)
(0.0259669 -0.00233721 -1.02731e-23)
(0.0258079 -0.00228779 4.80639e-27)
(0.248297 -0.000538312 0)
(0.270843 -0.000579111 0)
(0.292929 -0.000578146 0)
(0.316246 -0.000620934 0)
(0.340471 -0.000602794 0)
(0.36424 -0.00059441 0)
(0.387342 -0.000528023 0)
(0.406999 -0.000459315 0)
(0.425229 -0.000433489 0)
(0.018686 -7.58193e-08 0)
(0.0186878 -1.05987e-07 0)
(0.0186982 -1.87701e-07 0)
(0.0187044 -1.17337e-07 0)
(0.0187127 -2.74795e-07 0)
(0.0187294 -2.85957e-07 0)
(0.0187396 -2.77294e-07 0)
(0.0187573 -3.16398e-07 0)
(0.0187671 -2.36753e-07 0)
(0.0187851 -4.1231e-07 0)
(0.0188008 -2.6026e-07 0)
(0.0188159 -4.16467e-07 0)
(0.0188348 -3.28405e-07 0)
(0.0300117 -0.00032475 0)
(0.0443214 -0.000322738 0)
(0.0575474 -0.000338581 0)
(0.0706518 -0.000277571 0)
(0.0795037 -0.000196686 0)
(0.264974 -0.131007 -4.02177e-23)
(0.385797 -0.182877 4.84432e-39)
(0.302553 -0.141713 7.52316e-37)
(0.214508 -0.105706 -7.18515e-19)
(0.29159 -0.150224 1.20371e-35)
(0.443361 -0.229581 -1.92554e-35)
(0.566337 -0.293303 1.88079e-37)
(0.581449 -0.298809 -8.88208e-20)
(0.033813 -0.0056617 -2.93874e-39)
(0.0336768 -0.00557716 1.22122e-20)
(0.0334909 -0.0054836 -2.37257e-23)
(0.0333155 -0.00539597 1.21272e-20)
(0.0331828 -0.00531411 2.36441e-23)
(0.0330205 -0.00523 1.20199e-20)
(0.0329007 -0.00515229 2.34816e-23)
(0.0327492 -0.00507095 2.33199e-23)
(0.0326024 -0.00499039 -2.33205e-23)
(0.0324162 -0.00490607 -1.18785e-20)
(0.0352781 -0.00659018 -3.35016e-37)
(0.0351411 -0.00649394 -1.26539e-20)
(0.0350018 -0.00639822 -1.17549e-38)
(0.0348627 -0.00630393 1.25635e-20)
(0.0347204 -0.00621005 2.44063e-23)
(0.0345776 -0.00611722 1.24495e-20)
(0.034414 -0.00602167 -2.48827e-20)
(0.0342656 -0.00593089 2.42334e-23)
(0.0341204 -0.00584093 1.23174e-20)
(0.0339752 -0.00575244 2.40626e-23)
(-0.180607 0.0322048 1.05828e-19)
(-0.176748 0.0317524 4.29741e-19)
(-0.188239 0.0358305 -3.13401e-19)
(-0.260952 0.0501999 1.5525e-21)
(-0.339309 0.0644605 -1.54016e-21)
(-0.381137 0.0713086 -3.90489e-19)
(-0.371901 0.0693901 -3.89291e-19)
(-0.168944 -0.00036671 0)
(-0.150827 -0.000376729 0)
(-0.133054 -0.000290125 0)
(-0.118824 -0.000340063 0)
(-0.102283 -0.000317822 0)
(0.452727 -0.0009608 0)
(0.437353 0.00188325 0)
(0.121676 0.0100548 0)
(-0.212998 0.00209773 0)
(-0.204299 0.000957704 0)
(0.0188665 -8.50161e-08 0)
(0.0188757 1.89468e-07 0)
(0.018854 2.14617e-10 0)
(0.0188769 7.08903e-08 0)
(0.0188311 1.02512e-06 0)
(0.0188115 1.09072e-07 0)
(0.0188005 6.91736e-07 0)
(0.0187735 7.60392e-08 0)
(0.0187782 4.41632e-07 0)
(0.0187467 3.86037e-07 0)
(0.0187385 3.78077e-07 0)
(0.0187192 2.82707e-07 0)
(0.0187912 -9.02423e-07 0)
(0.0188234 -1.04199e-06 0)
(0.0188882 -1.52604e-06 0)
(0.0189488 -8.47593e-07 0)
(0.0189624 -5.79355e-07 0)
(0.0190088 -1.05885e-06 0)
(0.0190471 -7.2617e-07 0)
(0.0190836 -1.02382e-06 0)
(0.0191291 -8.95282e-07 0)
(0.0191708 -1.04261e-06 0)
(0.0192119 -9.25575e-07 0)
(-0.823877 0.193644 7.2032e-19)
(-1.13088 0.265046 -3.50038e-19)
(-1.35663 0.31526 3.36075e-19)
(-1.3918 0.320913 -3.19657e-19)
(-1.21278 0.273624 1.20112e-21)
(-0.601161 0.104032 -7.34684e-40)
(-0.172923 -0.00373426 3.86273e-23)
(0.565088 -0.140301 1.46937e-37)
(3.1081 -1.90256 -3.3824e-21)
(7.56379 -5.75447 2.16938e-18)
(6.37887 -10.3414 1.3221e-20)
(1.75988 -10.799 7.34048e-19)
(-1.91006 -8.34305 1.63432e-21)
(-3.59973 -5.48709 -5.82156e-19)
(-3.00711 -2.13928 -2.77726e-19)
(-1.63526 -0.442835 -4.21054e-20)
(-0.319603 -0.0547736 4.58443e-37)
(-0.469988 -0.000387651 0)
(-0.458206 -0.000524346 0)
(-0.440608 -0.000678003 0)
(-0.417124 -0.000681284 0)
(-0.394709 -0.000551056 0)
(-0.378024 -0.000452993 0)
(0.737931 -0.100993 -4.4914e-19)
(0.700885 -0.0968819 -4.5532e-19)
(0.65993 -0.0920809 9.14216e-19)
(0.612153 -0.0860545 3.0813e-19)
(0.565198 -0.0792989 9.40395e-38)
(0.509894 -0.0731948 -9.40395e-38)
(0.447257 -0.0646795 4.57426e-19)
(0.183071 0.00141942 0)
(0.11653 0.00156636 0)
(0.0438931 0.00244857 0)
(-0.0368984 0.00263753 0)
(-0.122293 0.00218316 0)
(0.442066 -0.000398015 0)
(0.458426 -0.000398037 0)
(0.47435 -0.000383162 0)
(0.490383 -0.000397584 0)
(0.506321 -0.000340188 0)
(0.0378035 -0.00866649 1.36587e-20)
(0.0376632 -0.00854151 -1.36096e-20)
(0.0375399 -0.00842202 2.70132e-20)
(0.0374245 -0.00830638 0)
(0.0372677 -0.00818159 -1.34077e-20)
(0.037122 -0.00806377 -2.35099e-38)
(0.0370066 -0.00795186 1.33107e-20)
(0.0368622 -0.00783709 -1.32115e-20)
(0.0367633 -0.0077319 1.31114e-20)
(0.0366199 -0.00761962 1.32187e-20)
(0.0191255 -5.87326e-07 0)
(0.0191575 -7.45145e-07 0)
(0.019193 -7.23467e-07 0)
(0.0192253 -6.54252e-07 0)
(0.0192524 -5.49166e-07 0)
(0.0192798 -6.37151e-07 0)
(0.019311 -5.36525e-07 0)
(0.0193309 -3.73129e-07 0)
(0.01935 -4.35021e-07 0)
(0.0193759 -6.80839e-07 0)
(0.0194162 -7.63235e-07 0)
(0.0194443 -5.59727e-07 0)
(0.0194753 -6.78772e-07 0)
(-0.130302 -0.0433541 1.85937e-20)
(-0.0177341 -0.0123738 -5.22219e-23)
(-0.00310971 -0.00374198 -3.89418e-24)
(0.00156864 0.00179271 2.93074e-20)
(0.614033 -0.0667892 1.61455e-24)
(0.645096 -0.0710471 1.58171e-19)
(0.674074 -0.0750643 1.63091e-19)
(0.695562 -0.0782637 -3.3195e-19)
(0.710332 -0.0808017 -1.33041e-21)
(0.719734 -0.0828813 -1.7364e-19)
(0.732045 -0.085493 -1.94544e-36)
(-0.295687 -0.00103102 0)
(-0.261496 -0.00148766 0)
(-0.222535 -0.0020676 0)
(-0.157692 -0.0016511 0)
(-0.0940033 -0.00105106 0)
(0.0193732 3.55672e-07 0)
(0.0193519 1.76723e-07 0)
(0.0193495 1.99359e-07 0)
(0.0193402 -7.64666e-09 0)
(0.0193446 2.05657e-08 0)
(0.01934 9.21343e-08 0)
(0.0193321 9.59255e-08 0)
(0.0193343 2.15733e-07 0)
(0.0193 9.16334e-07 0)
(0.0192682 3.87179e-07 0)
(0.019255 4.93514e-07 0)
(0.0192352 2.12983e-07 0)
(-0.153472 0.00944858 2.56042e-22)
(-0.158206 0.0106298 3.75837e-38)
(-0.197171 0.0142253 -1.13975e-24)
(-0.247315 0.0177276 -1.32053e-19)
(-0.312354 0.0227699 -2.53978e-22)
(-0.386567 0.0286868 2.53543e-22)
(-0.385503 0.00842954 3.71222e-20)
(-0.40564 0.00925939 -7.15941e-23)
(-0.423241 0.0102085 7.30569e-20)
(-0.442774 0.0112313 0)
(-0.461061 0.0121645 -3.58241e-20)
(-0.476243 0.0130227 0)
(-0.409296 -0.000236022 0)
(-0.400008 -0.000186898 0)
(-0.392566 -0.0001296 0)
(-0.387212 -5.39468e-05 0)
(0.412814 -0.000258138 0)
(0.411785 0.000387581 0)
(0.397331 0.000625081 0)
(0.376698 0.000710535 0)
(0.354786 0.000710686 0)
(0.333574 0.000674652 0)
(-0.256347 -0.000250844 0)
(-0.244955 -0.000247566 0)
(-0.233688 -0.000217679 0)
(-0.223889 -0.000163325 0)
(-0.216205 -0.000121147 0)
(-0.779301 0.723091 4.87845e-19)
(0.0384161 -0.0971017 1.85626e-18)
(0.805149 -0.863552 3.00927e-36)
(0.98726 -1.02667 7.85735e-22)
(-0.143009 0.279359 3.08698e-21)
(-1.93367 2.3271 1.91578e-18)
(-1.2267 1.42463 3.40351e-22)
(-0.280559 0.242832 2.10127e-18)
(0.0187121 2.4209e-07 0)
(0.0187017 9.17931e-08 0)
(0.0187049 -5.52235e-08 0)
(0.0187073 -1.21798e-07 0)
(0.0187168 -6.90993e-08 0)
(0.0187105 5.10989e-08 0)
(0.0187197 -4.16576e-07 0)
(0.0187406 -4.19956e-08 0)
(0.0187231 2.74822e-07 0)
(0.0187229 8.30168e-09 0)
(0.0187186 1.8441e-07 0)
(0.0187146 -1.16874e-08 0)
(0.0187157 1.05436e-07 0)
(1.25303 -1.71353 5.21838e-21)
(0.337439 -0.441858 2.22822e-20)
(-0.0217561 0.0408146 -4.92829e-23)
(0.00495597 -0.149372 -1.41902e-18)
(0.933951 -1.61876 1.30568e-21)
(0.0868145 0.00166468 1.17725e-23)
(-1.98665 4.31787 -1.28043e-18)
(-1.66658 3.8541 -2.11275e-22)
(0.220645 -0.00482271 0)
(0.0306203 -0.00407321 -5.27319e-37)
(0.0304161 -0.00399686 2.22387e-23)
(0.0302559 -0.00392928 1.13752e-20)
(0.0301164 -0.00386285 1.13162e-20)
(0.0299559 -0.00379615 2.20415e-23)
(0.0298437 -0.00373412 1.12672e-20)
(0.0296081 -0.00365786 -1.12536e-20)
(0.0294567 -0.00359531 -9.66844e-37)
(0.0293094 -0.00353175 -5.60303e-21)
(0.0291502 -0.0034685 2.17693e-23)
(0.0289907 -0.00340512 2.16367e-23)
(0.164144 -0.0419865 8.35859e-21)
(0.138152 -0.0341275 -3.50119e-19)
(0.0337283 -0.00589021 -6.86563e-19)
(-0.0649338 0.0189311 -1.36296e-18)
(-0.112724 0.030553 -7.52316e-37)
(-0.068304 0.0139488 4.96668e-23)
(0.0324138 -0.00953475 1.36719e-18)
(0.00100056 0.000521659 1.6648e-19)
(-0.431698 -1.27702e-05 0)
(-0.429701 -0.000130739 0)
(-0.425038 -0.000187376 0)
(-0.418328 -0.000229061 0)
(-0.69709 0.0507688 1.11353e-22)
(-0.554299 0.038365 6.36761e-24)
(-0.398059 0.0288661 -2.17078e-19)
(-0.265664 0.0190401 1.29404e-24)
(-0.146743 0.00968409 2.17893e-22)
(-0.0299361 -0.000518163 0)
(0.0800083 -0.00953396 -1.17803e-19)
(-0.0134235 -0.000387538 0)
(0.0020937 -0.000299534 0)
(0.00954813 -7.61914e-05 0)
(0.0124595 -6.9513e-05 0)
(0.0181135 -0.000199624 0)
(0.0187115 4.73112e-09 0)
(0.0187128 1.27838e-07 0)
(0.0187053 -1.41151e-07 0)
(0.0187259 -1.68286e-08 0)
(0.0186989 5.80872e-07 0)
(0.0186933 -1.09393e-07 0)
(0.0186959 2.35546e-07 0)
(0.0186885 -1.67276e-07 0)
(0.0187005 1.01849e-07 0)
(0.0186881 1.30037e-07 0)
(0.0186863 1.90938e-07 0)
(0.0186781 5.16758e-09 0)
(0.0386985 -0.0097874 -2.80598e-20)
(0.0385742 -0.00964909 -1.98473e-25)
(0.0384981 -0.00952531 2.78584e-20)
(0.0383834 -0.00939303 1.39057e-20)
(0.0382969 -0.00927082 1.17549e-38)
(0.0382 -0.00914634 -1.38051e-20)
(0.0381044 -0.00902547 -1.37559e-20)
(0.038006 -0.00890395 -1.36517e-20)
(0.0378976 -0.00878372 -1.37095e-20)
(0.0334349 -1.2364e-05 0)
(0.0340234 -1.30764e-05 0)
(0.034645 -1.38692e-05 0)
(0.0353063 -1.47631e-05 0)
(0.0360103 -1.57411e-05 0)
(0.0367616 -1.68317e-05 0)
(0.0375659 -1.80456e-05 0)
(0.0384284 -1.9394e-05 0)
(0.0393572 -2.09347e-05 0)
(0.0403603 -2.26615e-05 0)
(0.0414485 -2.4647e-05 0)
(0.0426322 -2.68771e-05 0)
(0.0439268 -2.95486e-05 0)
(0.0453537 -3.26463e-05 0)
(0.0210337 -1.56133e-06 0)
(0.0211099 -1.66636e-06 0)
(0.0211902 -1.7412e-06 0)
(0.0212745 -1.85646e-06 0)
(0.0213632 -1.90193e-06 0)
(0.0214534 -1.9358e-06 0)
(0.0215436 -1.94779e-06 0)
(0.0216377 -2.03838e-06 0)
(0.0217326 -1.99715e-06 0)
(0.0218267 -2.04285e-06 0)
(0.021924 -2.08658e-06 0)
(0.0220244 -2.21942e-06 0)
(0.0221314 -2.25232e-06 0)
(0.0222357 -2.30515e-06 0)
(0.0188517 -3.76889e-07 0)
(0.018865 -1.79584e-07 0)
(0.0188764 -3.18426e-07 0)
(0.0188916 -2.54236e-07 0)
(0.0189083 -4.83696e-07 0)
(0.0189333 -4.8943e-07 0)
(0.0189601 -6.77541e-07 0)
(0.0189911 -4.80884e-07 0)
(0.0190084 -4.93779e-07 0)
(0.0190373 -4.91444e-07 0)
(0.0190538 -3.02278e-07 0)
(0.0190708 -4.81206e-07 0)
(0.0191 -5.83889e-07 0)
(-0.355045 0.056385 -7.70234e-22)
(-0.286974 0.0444292 -4.16132e-26)
(-0.201208 0.0299292 4.30614e-19)
(-0.0839377 0.0130429 0)
(-0.0507863 0.00934086 -1.61352e-19)
(-0.0834773 0.0155649 5.53103e-21)
(-0.16264 0.0295333 -8.05179e-19)
(0.0192618 -9.63348e-07 0)
(0.01928 -6.79982e-07 0)
(0.0193438 -1.10154e-06 0)
(0.0193311 6.83184e-07 0)
(0.0193333 -1.07135e-06 0)
(0.0193783 1.67082e-07 0)
(0.0193485 -3.97936e-07 0)
(0.0193935 -3.12396e-07 0)
(0.0193852 -3.73091e-07 0)
(0.0194239 -3.48644e-07 0)
(0.0194075 -1.57347e-07 0)
(0.0191203 3.04465e-07 0)
(0.0191189 2.6494e-07 0)
(0.019095 4.06096e-07 0)
(0.0190886 9.7373e-08 0)
(0.0190804 2.67841e-07 0)
(0.0190721 -6.30261e-08 0)
(0.0190811 -4.86399e-08 0)
(0.0190768 -2.98307e-08 0)
(0.0190822 -2.2814e-08 0)
(0.0190741 3.1166e-07 0)
(0.0190554 4.33664e-07 0)
(0.0190342 5.01289e-07 0)
(0.0190136 3.59981e-07 0)
(-0.0487819 -0.000698995 0)
(-0.0713145 0.00193321 0)
(-0.140945 0.00444536 0)
(-0.272175 0.00682142 0)
(-0.524613 0.00577346 0)
(-0.496908 -0.00256622 0)
(-0.443414 -0.000306443 0)
(-0.488197 0.00239243 0)
(-0.587308 -6.40822e-05 0)
(-0.3113 -0.0385924 0)
(0.0239101 -0.00173281 -9.91809e-24)
(0.0237813 -0.00169175 2.36166e-26)
(0.0235869 -0.00164588 -1.01101e-20)
(0.0234257 -0.00160524 -5.05858e-21)
(0.023282 -0.00156444 2.24516e-26)
(0.0231236 -0.0015238 9.82696e-24)
(0.022939 -0.00148099 -9.78318e-24)
(0.0227783 -0.00144271 9.78333e-24)
(0.0226475 -0.00140434 3.29972e-40)
(0.0224794 -0.00136575 9.72042e-24)
(0.0190019 3.598e-07 0)
(0.0189818 2.91986e-07 0)
(0.0189797 7.81289e-08 0)
(0.0189688 2.73241e-07 0)
(0.0189614 2.08717e-07 0)
(0.0189419 3.23877e-07 0)
(0.0189455 1.18772e-07 0)
(0.0189122 9.43848e-07 0)
(0.018888 8.70511e-08 0)
(0.0188853 4.83161e-07 0)
(0.018866 -6.58262e-08 0)
(0.0188772 1.15498e-07 0)
(0.0416147 -0.0169996 -6.82766e-19)
(0.0894417 -0.035324 -8.65164e-36)
(0.137509 -0.0537421 -1.18284e-37)
(0.163055 -0.0633821 -5.3239e-22)
(0.16455 -0.0609247 1.12049e-21)
(0.00184312 0.00669799 -6.83973e-19)
(-0.232833 0.0974573 -2.743e-23)
(-0.254214 0.101737 -3.85649e-22)
(0.374936 -0.054266 4.08132e-35)
(0.285733 -0.0409913 -4.50544e-19)
(0.176664 -0.0237006 -1.88079e-37)
(0.0456944 -0.00230038 4.38501e-19)
(-0.104258 0.0208822 -8.44905e-22)
(-0.252151 0.0429093 -4.15878e-19)
(-0.350291 0.0566559 4.05718e-19)
(-0.377264 0.0601702 9.40395e-38)
(-0.411623 0.0179444 6.48056e-20)
(-0.398302 0.0178469 1.25951e-22)
(-0.384373 0.0177014 -6.45306e-20)
(-0.370552 0.0175188 3.40893e-37)
(-0.355617 0.0172212 6.41272e-20)
(-0.33962 0.0168483 -2.50414e-22)
(0.0256758 -0.00223977 -4.74606e-37)
(0.0254525 -0.00218494 -5.20097e-21)
(0.025302 -0.00213889 -1.01652e-23)
(0.0251515 -0.00209142 -1.01132e-23)
(0.0249958 -0.00204472 2.02011e-23)
(0.0248145 -0.00199539 -2.53635e-26)
(0.0246305 -0.0019486 -5.16582e-21)
(0.0244939 -0.00190481 1.00378e-23)
(0.0243309 -0.00185998 -5.82581e-40)
(0.0241982 -0.00181757 -9.96523e-24)
(0.0240501 -0.00177467 5.10613e-21)
(0.0205941 -0.0112019 1.23139e-22)
(0.0215913 -0.0115198 -6.32089e-20)
(0.0225718 -0.0118177 -3.16975e-20)
(0.0235136 -0.0120851 -3.14779e-20)
(0.0244472 -0.0123392 0)
(0.0253288 -0.0125586 -1.23604e-22)