/*--------------------------------*- C++ -*----------------------------------*\
| =========                 |                                                 |
| \\      /  F ield         | OpenFOAM: The Open Source CFD Toolbox           |
|  \\    /   O peration     | Version:  2412                                  |
|   \\  /    A nd           | Website:  www.openfoam.com                      |
|    \\/     M anipulation  |                                                 |
\*---------------------------------------------------------------------------*/
FoamFile
{
    version     2.0;
    format      ascii;
    arch        "LSB;label=32;scalar=64";
    class       volScalarField;
    location    "3000";
    object      p;
}
// * * * * * * * * * * * * * * * * * * * * * * * * * * * * * * * * * * * * * //

dimensions      [0 2 -2 0 0 0 0];

internalField   nonuniform List<scalar> 
360650
(
-4.62704
-4.62704
-4.62705
-4.62707
-4.62708
-4.6271
-4.62713
-4.62716
-4.62721
-4.62727
-4.62735
-4.62745
-4.62757
-4.62773
-4.62792
-4.62815
-4.62842
-4.62875
-4.62915
-4.62962
-4.63017
-4.63082
-4.63158
-4.63246
-4.6335
-4.63469
-4.63605
-4.63786
-4.61661
-4.61662
-4.61663
-4.61664
-4.61665
-4.61667
-4.6167
-4.61673
-4.61677
-4.61682
-4.61688
-4.61696
-4.61706
-4.61718
-4.61732
-4.6175
-4.6177
-4.61795
-4.61823
-4.61856
-4.61894
-4.61938
-4.61988
-4.62044
-4.62106
-4.62173
-4.62251
-4.6234
-4.6064
-4.60641
-4.60642
-4.60643
-4.60644
-4.60646
-4.60649
-4.60652
-4.60656
-4.60661
-4.60668
-4.60677
-4.60687
-4.607
-4.60716
-4.60735
-4.60757
-4.60784
-4.60816
-4.60853
-4.60896
-4.60945
-4.61001
-4.61065
-4.61136
-4.61214
-4.61301
-4.61385
-4.59615
-4.59616
-4.59617
-4.59618
-4.5962
-4.59621
-4.59624
-4.59627
-4.59631
-4.59636
-4.59643
-4.59652
-4.59662
-4.59676
-4.59692
-4.59711
-4.59735
-4.59763
-4.59797
-4.59836
-4.59883
-4.59938
-4.60002
-4.60076
-4.60162
-4.60262
-4.60377
-4.60502
-4.58609
-4.5861
-4.58611
-4.58612
-4.58613
-4.58615
-4.58617
-4.5862
-4.58624
-4.58629
-4.58635
-4.58643
-4.58652
-4.58664
-4.58679
-4.58696
-4.58717
-4.58742
-4.58772
-4.58806
-4.58846
-4.58893
-4.58946
-4.59007
-4.59075
-4.59153
-4.59237
-4.59325
-4.57622
-4.57623
-4.57624
-4.57625
-4.57626
-4.57628
-4.5763
-4.57633
-4.57637
-4.57642
-4.57648
-4.57657
-4.57667
-4.57679
-4.57695
-4.57714
-4.57736
-4.57763
-4.57795
-4.57833
-4.57877
-4.57928
-4.57987
-4.58055
-4.58132
-4.58218
-4.58313
-4.58424
-4.56638
-4.56639
-4.5664
-4.56641
-4.56642
-4.56644
-4.56646
-4.56649
-4.56654
-4.56659
-4.56666
-4.56675
-4.56686
-4.567
-4.56717
-4.56738
-4.56763
-4.56794
-4.5683
-4.56873
-4.56923
-4.56982
-4.57051
-4.57131
-4.57224
-4.57329
-4.57446
-4.57589
-4.55679
-4.5568
-4.55681
-4.55682
-4.55683
-4.55685
-4.55687
-4.5569
-4.55695
-4.557
-4.55707
-4.55716
-4.55727
-4.55741
-4.55758
-4.55779
-4.55804
-4.55835
-4.55872
-4.55915
-4.55967
-4.56029
-4.56101
-4.56186
-4.56285
-4.564
-4.56537
-4.56716
-4.54698
-4.54699
-4.547
-4.54701
-4.54702
-4.54704
-4.54706
-4.54708
-4.54712
-4.54716
-4.54722
-4.54729
-4.54737
-4.54748
-4.54761
-4.54776
-4.54795
-4.54817
-4.54843
-4.54873
-4.54907
-4.54947
-4.54992
-4.55043
-4.55098
-4.55159
-4.55231
-4.55289
-4.53796
-4.53797
-4.53798
-4.53798
-4.538
-4.53801
-4.53803
-4.53806
-4.5381
-4.53815
-4.53821
-4.53829
-4.53838
-4.53851
-4.53865
-4.53883
-4.53905
-4.53931
-4.53961
-4.53997
-4.54039
-4.54088
-4.54143
-4.54207
-4.54277
-4.54357
-4.54441
-4.54521
-4.52846
-4.52847
-4.52847
-4.52848
-4.5285
-4.52851
-4.52853
-4.52856
-4.5286
-4.52865
-4.52871
-4.52879
-4.52889
-4.52901
-4.52916
-4.52935
-4.52957
-4.52984
-4.53017
-4.53055
-4.53101
-4.53154
-4.53217
-4.53291
-4.53377
-4.53476
-4.5359
-4.53734
-149.499
-149.5
-149.502
-149.504
-149.507
-149.512
-149.518
-149.526
-149.536
-149.55
-149.567
-149.589
-149.615
-149.646
-149.682
-149.727
-149.783
-149.854
-149.935
-150.018
-150.103
-150.192
-150.284
-150.392
-150.513
-150.659
-150.804
-151.097
-148.652
-148.654
-148.655
-148.657
-148.659
-148.663
-148.668
-148.676
-148.686
-148.7
-148.72
-148.746
-148.779
-148.819
-148.866
-148.926
-149.007
-149.118
-149.247
-149.376
-149.494
-149.6
-149.697
-149.796
-149.883
-149.975
-150.036
-150.117
-147.97
-147.976
-147.982
-147.989
-148
-148.018
-148.042
-148.072
-148.108
-148.154
-148.215
-148.292
-148.387
-148.498
-148.625
-148.772
-148.942
-149.136
-149.354
-149.596
-149.842
-150.092
-150.358
-150.651
-150.938
-151.278
-151.593
-151.89
-148.741
-148.746
-148.747
-148.745
-148.746
-148.753
-148.773
-148.808
-148.863
-148.937
-149.028
-149.137
-149.261
-149.4
-149.551
-149.714
-149.891
-150.088
-150.302
-150.536
-150.797
-151.089
-151.407
-151.757
-152.128
-152.569
-152.946
-153.562
-152.217
-152.225
-152.229
-152.233
-152.239
-152.251
-152.27
-152.295
-152.327
-152.362
-152.399
-152.434
-152.47
-152.51
-152.557
-152.615
-152.684
-152.761
-152.841
-152.921
-153.013
-153.122
-153.251
-153.398
-153.567
-153.767
-153.944
-154.366
-160.122
-160.141
-160.17
-160.213
-160.269
-160.332
-160.391
-160.435
-160.458
-160.448
-160.397
-160.301
-160.164
-159.99
-159.784
-159.544
-159.257
-158.919
-158.537
-158.116
-157.665
-157.199
-156.723
-156.235
-155.74
-155.241
-154.699
-154.294
-138.435
-138.435
-138.435
-138.436
-138.436
-138.436
-138.436
-138.437
-138.437
-138.438
-138.438
-138.439
-138.44
-138.442
-138.443
-138.445
-138.447
-138.449
-138.452
-138.454
-138.458
-138.461
-138.465
-138.47
-138.476
-138.482
-138.489
-138.497
-139.074
-139.074
-139.075
-139.075
-139.075
-139.075
-139.075
-139.076
-139.076
-139.077
-139.077
-139.078
-139.08
-139.081
-139.083
-139.085
-139.087
-139.09
-139.093
-139.097
-139.101
-139.105
-139.111
-139.117
-139.123
-139.131
-139.139
-139.149
-139.742
-139.742
-139.743
-139.743
-139.743
-139.743
-139.743
-139.743
-139.744
-139.744
-139.745
-139.746
-139.747
-139.748
-139.75
-139.752
-139.754
-139.757
-139.76
-139.764
-139.768
-139.773
-139.779
-139.785
-139.792
-139.8
-139.81
-139.821
-140.422
-140.422
-140.422
-140.423
-140.423
-140.423
-140.423
-140.423
-140.423
-140.423
-140.423
-140.424
-140.424
-140.425
-140.426
-140.428
-140.429
-140.432
-140.434
-140.437
-140.441
-140.445
-140.45
-140.455
-140.462
-140.469
-140.477
-140.487
-141.116
-141.116
-141.116
-141.116
-141.116
-141.116
-141.116
-141.116
-141.115
-141.115
-141.114
-141.114
-141.114
-141.114
-141.114
-141.114
-141.114
-141.115
-141.116
-141.117
-141.119
-141.121
-141.123
-141.126
-141.13
-141.134
-141.139
-141.145
-121.779
-121.78
-121.783
-121.789
-121.796
-121.805
-121.816
-121.827
-121.839
-121.849
-121.855
-121.855
-121.847
-121.83
-121.804
-121.768
-121.722
-121.665
-121.597
-121.52
-121.433
-121.336
-121.23
-121.119
-121.004
-120.879
-120.743
-120.6
-122.516
-122.519
-122.527
-122.542
-122.562
-122.586
-122.613
-122.64
-122.664
-122.681
-122.686
-122.676
-122.649
-122.607
-122.551
-122.482
-122.403
-122.312
-122.207
-122.09
-121.968
-121.839
-121.703
-121.566
-121.43
-121.287
-121.134
-120.966
-122.295
-122.292
-122.29
-122.289
-122.289
-122.29
-122.291
-122.292
-122.292
-122.292
-122.29
-122.287
-122.281
-122.273
-122.259
-122.237
-122.204
-122.155
-122.085
-122.002
-121.92
-121.839
-121.751
-121.652
-121.543
-121.423
-121.298
-121.162
-121.654
-121.652
-121.651
-121.649
-121.648
-121.648
-121.648
-121.649
-121.651
-121.654
-121.657
-121.66
-121.662
-121.663
-121.662
-121.657
-121.65
-121.64
-121.628
-121.611
-121.585
-121.549
-121.505
-121.451
-121.388
-121.318
-121.247
-121.161
-121.415
-121.414
-121.412
-121.41
-121.408
-121.405
-121.402
-121.4
-121.397
-121.396
-121.395
-121.396
-121.398
-121.4
-121.403
-121.406
-121.407
-121.407
-121.403
-121.396
-121.387
-121.375
-121.358
-121.334
-121.308
-121.276
-121.245
-121.192
-121.348
-121.346
-121.344
-121.341
-121.337
-121.333
-121.329
-121.325
-121.321
-121.318
-121.316
-121.317
-121.32
-121.325
-121.33
-121.335
-121.341
-121.347
-121.352
-121.356
-121.359
-121.36
-121.361
-121.36
-121.358
-121.35
-121.345
-121.33
-159.324
-159.324
-159.324
-159.325
-159.326
-159.326
-159.326
-159.327
-159.327
-159.327
-159.327
-159.326
-159.326
-159.325
-159.322
-159.319
-159.314
-159.309
-159.301
-159.292
-159.281
-159.268
-159.252
-159.234
-159.211
-159.193
-159.17
-159.091
-158.147
-158.147
-158.147
-158.147
-158.146
-158.145
-158.143
-158.139
-158.136
-158.131
-158.125
-158.119
-158.111
-158.101
-158.09
-158.077
-158.061
-158.042
-158.021
-157.995
-157.966
-157.932
-157.893
-157.846
-157.794
-157.735
-157.651
-157.548
-156.989
-156.989
-156.988
-156.988
-156.986
-156.984
-156.98
-156.976
-156.971
-156.966
-156.959
-156.951
-156.942
-156.931
-156.918
-156.903
-156.885
-156.864
-156.839
-156.81
-156.777
-156.738
-156.696
-156.646
-156.595
-156.532
-156.459
-156.389
-155.969
-155.969
-155.969
-155.968
-155.967
-155.966
-155.965
-155.963
-155.962
-155.961
-155.959
-155.957
-155.954
-155.95
-155.945
-155.939
-155.931
-155.92
-155.908
-155.893
-155.875
-155.853
-155.831
-155.799
-155.771
-155.722
-155.684
-155.62
-155.095
-155.095
-155.095
-155.095
-155.095
-155.095
-155.097
-155.098
-155.101
-155.104
-155.108
-155.113
-155.118
-155.124
-155.131
-155.138
-155.147
-155.156
-155.166
-155.177
-155.191
-155.206
-155.228
-155.246
-155.283
-155.298
-155.36
-155.373
-154.26
-154.26
-154.261
-154.262
-154.263
-154.265
-154.268
-154.273
-154.278
-154.285
-154.293
-154.303
-154.314
-154.326
-154.34
-154.357
-154.375
-154.396
-154.42
-154.447
-154.48
-154.515
-154.561
-154.605
-154.678
-154.722
-154.846
-154.874
-143.463
-143.464
-143.464
-143.465
-143.464
-143.463
-143.461
-143.457
-143.453
-143.446
-143.438
-143.427
-143.415
-143.4
-143.385
-143.369
-143.352
-143.333
-143.312
-143.288
-143.26
-143.229
-143.194
-143.155
-143.111
-143.063
-143.011
-142.947
-143.522
-143.523
-143.524
-143.523
-143.523
-143.521
-143.519
-143.516
-143.511
-143.505
-143.498
-143.489
-143.479
-143.468
-143.454
-143.439
-143.421
-143.4
-143.376
-143.35
-143.32
-143.286
-143.248
-143.206
-143.16
-143.107
-143.05
-142.989
-143.634
-143.634
-143.635
-143.635
-143.634
-143.633
-143.63
-143.627
-143.622
-143.617
-143.609
-143.601
-143.591
-143.579
-143.566
-143.551
-143.534
-143.515
-143.493
-143.469
-143.441
-143.411
-143.377
-143.339
-143.297
-143.25
-143.201
-143.145
-143.766
-143.766
-143.766
-143.766
-143.766
-143.764
-143.762
-143.759
-143.755
-143.75
-143.744
-143.736
-143.728
-143.717
-143.706
-143.692
-143.677
-143.659
-143.64
-143.618
-143.593
-143.566
-143.536
-143.503
-143.468
-143.429
-143.389
-143.34
-143.936
-143.936
-143.936
-143.936
-143.936
-143.935
-143.933
-143.93
-143.927
-143.922
-143.917
-143.91
-143.902
-143.893
-143.882
-143.87
-143.855
-143.838
-143.819
-143.798
-143.774
-143.748
-143.718
-143.685
-143.65
-143.611
-143.571
-143.528
-144.154
-144.155
-144.155
-144.155
-144.154
-144.153
-144.151
-144.149
-144.146
-144.142
-144.137
-144.131
-144.124
-144.115
-144.105
-144.092
-144.078
-144.061
-144.042
-144.02
-143.995
-143.967
-143.935
-143.9
-143.861
-143.817
-143.771
-143.713
-144.443
-144.443
-144.444
-144.444
-144.443
-144.442
-144.441
-144.439
-144.436
-144.433
-144.429
-144.424
-144.418
-144.41
-144.4
-144.389
-144.376
-144.361
-144.343
-144.323
-144.301
-144.276
-144.249
-144.218
-144.185
-144.149
-144.112
-144.064
-4.32362
-4.32362
-4.32362
-4.32362
-4.32362
-4.32363
-4.32363
-4.32365
-4.32366
-4.32368
-4.32372
-4.32376
-4.32381
-4.32388
-4.32397
-4.32407
-4.3242
-4.32436
-4.32456
-4.32479
-4.32506
-4.32538
-4.32576
-4.3262
-4.3267
-4.32728
-4.32787
-4.32869
-4.32086
-4.32086
-4.32086
-4.32086
-4.32086
-4.32087
-4.32087
-4.32088
-4.3209
-4.32092
-4.32095
-4.32099
-4.32104
-4.32111
-4.32119
-4.3213
-4.32143
-4.32159
-4.32178
-4.32202
-4.3223
-4.32264
-4.32305
-4.32354
-4.32412
-4.3248
-4.32563
-4.3269
-4.31831
-4.31831
-4.31831
-4.3183
-4.3183
-4.3183
-4.31831
-4.31831
-4.31832
-4.31833
-4.31835
-4.31837
-4.3184
-4.31844
-4.31849
-4.31854
-4.31861
-4.31869
-4.31878
-4.31889
-4.31902
-4.31916
-4.31932
-4.31949
-4.31968
-4.31988
-4.32014
-4.32028
-4.31612
-4.31611
-4.31611
-4.3161
-4.3161
-4.3161
-4.3161
-4.31611
-4.31611
-4.31613
-4.31614
-4.31617
-4.3162
-4.31624
-4.31629
-4.31636
-4.31644
-4.31654
-4.31665
-4.3168
-4.31696
-4.31716
-4.31738
-4.31764
-4.31793
-4.31826
-4.31862
-4.31896
-4.31373
-4.31372
-4.31372
-4.31371
-4.31371
-4.3137
-4.3137
-4.3137
-4.3137
-4.3137
-4.31371
-4.31372
-4.31374
-4.31377
-4.3138
-4.31384
-4.31389
-4.31395
-4.31403
-4.31412
-4.31423
-4.31437
-4.31452
-4.31471
-4.31494
-4.3152
-4.31552
-4.31587
-4.31174
-4.31173
-4.31172
-4.31171
-4.3117
-4.3117
-4.31169
-4.31169
-4.31168
-4.31168
-4.31169
-4.31169
-4.3117
-4.31171
-4.31173
-4.31176
-4.31179
-4.31183
-4.31188
-4.31195
-4.31202
-4.31211
-4.31222
-4.31234
-4.31247
-4.31261
-4.31277
-4.31291
-4.30909
-4.30908
-4.30907
-4.30906
-4.30905
-4.30905
-4.30904
-4.30904
-4.30904
-4.30903
-4.30904
-4.30904
-4.30905
-4.30907
-4.30909
-4.30912
-4.30916
-4.30921
-4.30927
-4.30935
-4.30945
-4.30958
-4.30972
-4.3099
-4.3101
-4.31034
-4.31062
-4.31092
-4.30655
-4.30655
-4.30654
-4.30653
-4.30652
-4.30652
-4.30651
-4.30651
-4.30651
-4.30651
-4.30651
-4.30651
-4.30653
-4.30654
-4.30656
-4.30659
-4.30664
-4.30669
-4.30675
-4.30684
-4.30694
-4.30707
-4.30722
-4.3074
-4.30762
-4.30787
-4.30818
-4.30848
-4.30359
-4.30358
-4.30358
-4.30357
-4.30356
-4.30356
-4.30355
-4.30355
-4.30354
-4.30354
-4.30354
-4.30355
-4.30356
-4.30357
-4.30359
-4.30362
-4.30365
-4.3037
-4.30376
-4.30383
-4.30393
-4.30404
-4.30418
-4.30435
-4.30455
-4.30478
-4.30508
-4.3054
-4.30052
-4.30051
-4.3005
-4.30049
-4.30049
-4.30048
-4.30048
-4.30048
-4.30048
-4.30048
-4.30048
-4.30049
-4.3005
-4.30052
-4.30055
-4.30058
-4.30063
-4.30069
-4.30076
-4.30085
-4.30096
-4.30108
-4.30123
-4.30141
-4.3016
-4.30185
-4.30226
-4.30267
-4.2974
-4.29739
-4.29739
-4.29738
-4.29738
-4.29737
-4.29737
-4.29737
-4.29737
-4.29738
-4.29739
-4.29741
-4.29744
-4.29747
-4.29752
-4.29758
-4.29766
-4.29777
-4.2979
-4.29807
-4.29828
-4.29854
-4.29886
-4.29926
-4.29977
-4.30056
-4.30171
-4.30298
-155.448
-155.448
-155.449
-155.449
-155.449
-155.45
-155.45
-155.45
-155.451
-155.451
-155.452
-155.452
-155.453
-155.454
-155.454
-155.455
-155.456
-155.458
-155.46
-155.462
-155.466
-155.47
-155.475
-155.481
-155.489
-155.498
-155.509
-155.519
-156.537
-156.538
-156.538
-156.538
-156.539
-156.539
-156.54
-156.54
-156.541
-156.542
-156.542
-156.543
-156.544
-156.545
-156.546
-156.546
-156.547
-156.548
-156.55
-156.551
-156.553
-156.556
-156.559
-156.562
-156.567
-156.572
-156.579
-156.586
-157.633
-157.633
-157.633
-157.633
-157.634
-157.634
-157.635
-157.635
-157.636
-157.637
-157.638
-157.639
-157.64
-157.642
-157.643
-157.644
-157.645
-157.647
-157.648
-157.649
-157.651
-157.653
-157.656
-157.659
-157.663
-157.668
-157.674
-157.681
-158.743
-158.743
-158.744
-158.744
-158.744
-158.745
-158.745
-158.746
-158.746
-158.747
-158.749
-158.75
-158.752
-158.753
-158.755
-158.757
-158.759
-158.762
-158.764
-158.767
-158.77
-158.774
-158.778
-158.783
-158.788
-158.794
-158.801
-158.811
-159.86
-159.86
-159.86
-159.86
-159.861
-159.861
-159.861
-159.862
-159.862
-159.863
-159.864
-159.865
-159.866
-159.868
-159.869
-159.871
-159.873
-159.876
-159.878
-159.881
-159.884
-159.887
-159.891
-159.895
-159.9
-159.905
-159.91
-159.916
-7.57274
-7.57269
-7.57263
-7.57259
-7.57258
-7.57261
-7.57269
-7.57286
-7.57314
-7.57359
-7.57425
-7.5752
-7.57651
-7.57829
-7.58065
-7.58372
-7.58765
-7.59261
-7.59878
-7.60632
-7.61545
-7.62633
-7.63916
-7.65411
-7.67135
-7.691
-7.71342
-7.73774
-7.58568
-7.58563
-7.58557
-7.58554
-7.58553
-7.58556
-7.58565
-7.58584
-7.58614
-7.58661
-7.5873
-7.58828
-7.58962
-7.59144
-7.59383
-7.59692
-7.60087
-7.60581
-7.61193
-7.61938
-7.62834
-7.63899
-7.65148
-7.66597
-7.68261
-7.70153
-7.72281
-7.74633
-7.59834
-7.59828
-7.59823
-7.5982
-7.59819
-7.59823
-7.59834
-7.59854
-7.59886
-7.59936
-7.60008
-7.6011
-7.60249
-7.60436
-7.60681
-7.60996
-7.61395
-7.61893
-7.62506
-7.63249
-7.6414
-7.65193
-7.66423
-7.67846
-7.69473
-7.71313
-7.73383
-7.7569
-7.60946
-7.6094
-7.60935
-7.60932
-7.60932
-7.60937
-7.60949
-7.6097
-7.61004
-7.61057
-7.61132
-7.61238
-7.61382
-7.61573
-7.61823
-7.62143
-7.62547
-7.63049
-7.63664
-7.64408
-7.65296
-7.66344
-7.67566
-7.68975
-7.70585
-7.72407
-7.74462
-7.76689
-7.6199
-7.61985
-7.6198
-7.61977
-7.61978
-7.61983
-7.61996
-7.62018
-7.62055
-7.62109
-7.62187
-7.62296
-7.62443
-7.62637
-7.6289
-7.63212
-7.63617
-7.64117
-7.64729
-7.65465
-7.66341
-7.67371
-7.68568
-7.69946
-7.71516
-7.7329
-7.7527
-7.77477
-7.62895
-7.6289
-7.62885
-7.62883
-7.62884
-7.6289
-7.62903
-7.62927
-7.62965
-7.63021
-7.63102
-7.63213
-7.63362
-7.63559
-7.63813
-7.64137
-7.64541
-7.6504
-7.65646
-7.66373
-7.67235
-7.68246
-7.69418
-7.70762
-7.72291
-7.74008
-7.75936
-7.78077
-7.63702
-7.63697
-7.63692
-7.6369
-7.63692
-7.63699
-7.63713
-7.63738
-7.63777
-7.63835
-7.63917
-7.6403
-7.64182
-7.6438
-7.64635
-7.64958
-7.65361
-7.65855
-7.66453
-7.6717
-7.68016
-7.69005
-7.70149
-7.71458
-7.72942
-7.74608
-7.7648
-7.78508
-7.6438
-7.64376
-7.64371
-7.6437
-7.64372
-7.64379
-7.64394
-7.6442
-7.64461
-7.64521
-7.64605
-7.6472
-7.64873
-7.65073
-7.65329
-7.65653
-7.66054
-7.66545
-7.67139
-7.67846
-7.6868
-7.69652
-7.70773
-7.72053
-7.73502
-7.75128
-7.76942
-7.78905
-7.64943
-7.64939
-7.64935
-7.64933
-7.64936
-7.64944
-7.6496
-7.64987
-7.65029
-7.6509
-7.65176
-7.65293
-7.65448
-7.6565
-7.65907
-7.66231
-7.66631
-7.6712
-7.67708
-7.68408
-7.69231
-7.70188
-7.7129
-7.72547
-7.73969
-7.75563
-7.77334
-7.79291
-125.001
-125.001
-125.001
-125.001
-125.002
-125.002
-125.002
-125.003
-125.002
-125.002
-125.001
-125
-124.999
-124.998
-124.997
-124.997
-124.996
-124.997
-124.998
-124.999
-125.002
-125.007
-125.012
-125.019
-125.028
-125.038
-125.056
-125.078
-124.67
-124.67
-124.67
-124.671
-124.671
-124.671
-124.671
-124.671
-124.671
-124.671
-124.671
-124.671
-124.671
-124.671
-124.672
-124.673
-124.674
-124.676
-124.679
-124.683
-124.687
-124.693
-124.7
-124.708
-124.718
-124.729
-124.743
-124.75
-4.29357
-4.29357
-4.29356
-4.29356
-4.29355
-4.29355
-4.29354
-4.29354
-4.29354
-4.29353
-4.29353
-4.29353
-4.29353
-4.29353
-4.29353
-4.29353
-4.29353
-4.29353
-4.29354
-4.29355
-4.29355
-4.29356
-4.29357
-4.29357
-4.29358
-4.29356
-4.2935
-4.29353
-4.29042
-4.29042
-4.29041
-4.29041
-4.2904
-4.2904
-4.29039
-4.29039
-4.29039
-4.29039
-4.29039
-4.29039
-4.2904
-4.2904
-4.29041
-4.29043
-4.29045
-4.29047
-4.2905
-4.29053
-4.29056
-4.29061
-4.29065
-4.29069
-4.29072
-4.29073
-4.29072
-4.29059
-4.28631
-4.2863
-4.2863
-4.28629
-4.28629
-4.28629
-4.28628
-4.28628
-4.28628
-4.28628
-4.28628
-4.28629
-4.28629
-4.28631
-4.28632
-4.28634
-4.28637
-4.2864
-4.28645
-4.28651
-4.28658
-4.28667
-4.28678
-4.28691
-4.28708
-4.28729
-4.28754
-4.28786
-4.28277
-4.28276
-4.28276
-4.28275
-4.28275
-4.28275
-4.28274
-4.28274
-4.28274
-4.28273
-4.28273
-4.28273
-4.28273
-4.28274
-4.28274
-4.28275
-4.28275
-4.28277
-4.28278
-4.2828
-4.28283
-4.28287
-4.28291
-4.28296
-4.28302
-4.2831
-4.2832
-4.28328
-4.27849
-4.27848
-4.27848
-4.27847
-4.27847
-4.27847
-4.27846
-4.27846
-4.27846
-4.27846
-4.27846
-4.27847
-4.27847
-4.27848
-4.2785
-4.27851
-4.27854
-4.27857
-4.2786
-4.27864
-4.27869
-4.27875
-4.27882
-4.27889
-4.27896
-4.27903
-4.27912
-4.27916
-4.27469
-4.27468
-4.27468
-4.27467
-4.27467
-4.27467
-4.27467
-4.27467
-4.27467
-4.27467
-4.27468
-4.27469
-4.27471
-4.27473
-4.27476
-4.2748
-4.27486
-4.27493
-4.27501
-4.27512
-4.27526
-4.27543
-4.27564
-4.27591
-4.27624
-4.27664
-4.27718
-4.27785
-4.26997
-4.26997
-4.26997
-4.26996
-4.26996
-4.26996
-4.26995
-4.26995
-4.26995
-4.26994
-4.26994
-4.26994
-4.26993
-4.26993
-4.26993
-4.26993
-4.26992
-4.26992
-4.26992
-4.26991
-4.26991
-4.2699
-4.26989
-4.26987
-4.26984
-4.26982
-4.26977
-4.26972
-4.26607
-4.26606
-4.26606
-4.26606
-4.26605
-4.26605
-4.26605
-4.26605
-4.26605
-4.26605
-4.26606
-4.26606
-4.26608
-4.26609
-4.26611
-4.26614
-4.26618
-4.26622
-4.26627
-4.26634
-4.26642
-4.26652
-4.26662
-4.26674
-4.26687
-4.267
-4.26712
-4.26717
-4.26127
-4.26126
-4.26126
-4.26126
-4.26126
-4.26125
-4.26125
-4.26125
-4.26126
-4.26126
-4.26127
-4.26127
-4.26129
-4.26131
-4.26133
-4.26136
-4.26141
-4.26146
-4.26153
-4.26162
-4.26174
-4.26188
-4.26206
-4.26229
-4.26258
-4.26295
-4.26341
-4.26411
-4.25685
-4.25685
-4.25684
-4.25684
-4.25684
-4.25684
-4.25683
-4.25683
-4.25683
-4.25682
-4.25682
-4.25681
-4.2568
-4.25679
-4.25678
-4.25676
-4.25674
-4.25672
-4.25669
-4.25665
-4.2566
-4.25654
-4.25645
-4.25635
-4.25622
-4.25604
-4.25586
-4.25557
-4.25232
-4.25231
-4.25231
-4.25231
-4.2523
-4.2523
-4.2523
-4.2523
-4.2523
-4.2523
-4.2523
-4.25231
-4.25232
-4.25233
-4.25234
-4.25236
-4.25238
-4.25241
-4.25244
-4.25248
-4.25253
-4.25259
-4.25265
-4.25273
-4.2528
-4.25288
-4.25295
-4.2529
-123.322
-123.322
-123.322
-123.323
-123.324
-123.325
-123.325
-123.326
-123.325
-123.324
-123.321
-123.316
-123.31
-123.303
-123.295
-123.287
-123.279
-123.272
-123.266
-123.26
-123.257
-123.254
-123.254
-123.257
-123.266
-123.275
-123.285
-123.298
-123.115
-123.114
-123.115
-123.115
-123.116
-123.117
-123.118
-123.118
-123.119
-123.118
-123.117
-123.116
-123.113
-123.111
-123.108
-123.105
-123.104
-123.105
-123.107
-123.113
-123.122
-123.135
-123.152
-123.176
-123.212
-123.248
-123.293
-123.337
-122.775
-122.774
-122.774
-122.774
-122.774
-122.775
-122.775
-122.776
-122.777
-122.777
-122.777
-122.777
-122.777
-122.778
-122.779
-122.782
-122.786
-122.794
-122.805
-122.82
-122.84
-122.866
-122.898
-122.938
-122.985
-123.043
-123.121
-123.205
-123.222
-123.222
-123.223
-123.224
-123.224
-123.225
-123.226
-123.227
-123.228
-123.229
-123.23
-123.232
-123.233
-123.234
-123.235
-123.236
-123.236
-123.236
-123.236
-123.235
-123.235
-123.234
-123.232
-123.231
-123.228
-123.226
-123.221
-123.218
-123.219
-123.22
-123.221
-123.221
-123.222
-123.223
-123.224
-123.224
-123.225
-123.226
-123.228
-123.229
-123.23
-123.231
-123.231
-123.231
-123.23
-123.229
-123.228
-123.226
-123.224
-123.222
-123.22
-123.217
-123.214
-123.212
-123.206
-123.205
-130.556
-130.556
-130.557
-130.557
-130.557
-130.558
-130.558
-130.559
-130.56
-130.561
-130.563
-130.565
-130.567
-130.57
-130.573
-130.577
-130.581
-130.586
-130.591
-130.597
-130.604
-130.612
-130.62
-130.626
-130.632
-130.637
-130.642
-130.646
-131.132
-131.132
-131.133
-131.133
-131.133
-131.134
-131.135
-131.137
-131.138
-131.14
-131.143
-131.146
-131.149
-131.154
-131.158
-131.164
-131.17
-131.177
-131.184
-131.192
-131.2
-131.209
-131.219
-131.227
-131.232
-131.233
-131.232
-131.23
-131.653
-131.653
-131.653
-131.653
-131.654
-131.655
-131.656
-131.657
-131.659
-131.662
-131.664
-131.667
-131.671
-131.676
-131.681
-131.687
-131.694
-131.702
-131.71
-131.719
-131.729
-131.738
-131.748
-131.757
-131.765
-131.771
-131.774
-131.773
-132.101
-132.101
-132.101
-132.101
-132.102
-132.102
-132.103
-132.104
-132.105
-132.106
-132.108
-132.11
-132.112
-132.115
-132.118
-132.122
-132.127
-132.132
-132.138
-132.146
-132.154
-132.163
-132.172
-132.183
-132.192
-132.201
-132.21
-132.214
-132.472
-132.473
-132.473
-132.473
-132.473
-132.473
-132.472
-132.472
-132.471
-132.469
-132.468
-132.465
-132.463
-132.46
-132.456
-132.453
-132.449
-132.445
-132.441
-132.438
-132.436
-132.435
-132.436
-132.438
-132.442
-132.449
-132.458
-132.469
-124.228
-124.228
-124.228
-124.228
-124.228
-124.227
-124.227
-124.227
-124.227
-124.227
-124.226
-124.226
-124.226
-124.225
-124.225
-124.225
-124.225
-124.226
-124.226
-124.226
-124.226
-124.226
-124.226
-124.226
-124.226
-124.224
-124.225
-124.226
-128.05
-128.049
-128.049
-128.049
-128.05
-128.051
-128.052
-128.052
-128.052
-128.05
-128.047
-128.042
-128.036
-128.028
-128.02
-128.013
-128.006
-128
-127.997
-127.996
-127.998
-128.004
-128.014
-128.031
-128.056
-128.083
-128.119
-128.223
-124.016
-124.016
-124.016
-124.016
-124.016
-124.016
-124.016
-124.016
-124.016
-124.016
-124.016
-124.016
-124.017
-124.017
-124.018
-124.019
-124.02
-124.021
-124.023
-124.023
-124.024
-124.024
-124.024
-124.023
-124.02
-124.015
-124.012
-123.997
-123.817
-123.817
-123.817
-123.817
-123.817
-123.817
-123.817
-123.817
-123.818
-123.819
-123.82
-123.822
-123.824
-123.827
-123.83
-123.833
-123.837
-123.842
-123.847
-123.853
-123.859
-123.866
-123.874
-123.883
-123.892
-123.903
-123.919
-123.921
-193.329
-193.329
-193.329
-193.33
-193.33
-193.33
-193.331
-193.331
-193.332
-193.333
-193.334
-193.335
-193.337
-193.339
-193.342
-193.345
-193.348
-193.352
-193.356
-193.361
-193.367
-193.373
-193.38
-193.388
-193.397
-193.406
-193.416
-193.424
-194.995
-194.995
-194.996
-194.996
-194.996
-194.997
-194.997
-194.998
-194.999
-194.999
-195.001
-195.002
-195.004
-195.006
-195.008
-195.011
-195.014
-195.018
-195.023
-195.028
-195.035
-195.042
-195.05
-195.059
-195.07
-195.082
-195.097
-195.113
-196.687
-196.687
-196.688
-196.688
-196.689
-196.689
-196.69
-196.691
-196.692
-196.694
-196.695
-196.698
-196.7
-196.703
-196.706
-196.71
-196.714
-196.719
-196.724
-196.73
-196.737
-196.745
-196.754
-196.763
-196.774
-196.785
-196.795
-196.815
-198.364
-198.364
-198.364
-198.365
-198.365
-198.366
-198.366
-198.367
-198.368
-198.37
-198.371
-198.373
-198.375
-198.377
-198.38
-198.383
-198.387
-198.391
-198.396
-198.401
-198.406
-198.412
-198.418
-198.425
-198.433
-198.441
-198.448
-198.453
-125.223
-125.224
-125.224
-125.224
-125.224
-125.224
-125.224
-125.225
-125.227
-125.229
-125.233
-125.237
-125.241
-125.246
-125.252
-125.257
-125.262
-125.267
-125.271
-125.274
-125.275
-125.276
-125.274
-125.27
-125.262
-125.251
-125.235
-125.215
-124.857
-124.857
-124.857
-124.857
-124.857
-124.857
-124.858
-124.858
-124.857
-124.857
-124.856
-124.855
-124.854
-124.853
-124.852
-124.851
-124.851
-124.852
-124.853
-124.855
-124.857
-124.861
-124.866
-124.873
-124.881
-124.891
-124.905
-124.915
-128.708
-128.709
-128.712
-128.715
-128.718
-128.721
-128.721
-128.717
-128.71
-128.698
-128.685
-128.671
-128.657
-128.639
-128.62
-128.599
-128.576
-128.554
-128.532
-128.51
-128.489
-128.47
-128.452
-128.435
-128.421
-128.412
-128.395
-128.386
-124.457
-124.457
-124.457
-124.457
-124.457
-124.457
-124.457
-124.457
-124.458
-124.458
-124.458
-124.459
-124.459
-124.46
-124.461
-124.463
-124.465
-124.468
-124.472
-124.477
-124.483
-124.49
-124.498
-124.508
-124.52
-124.533
-124.549
-124.568
-125.152
-125.153
-125.153
-125.154
-125.154
-125.154
-125.154
-125.155
-125.155
-125.155
-125.154
-125.154
-125.152
-125.151
-125.148
-125.146
-125.142
-125.138
-125.134
-125.128
-125.121
-125.113
-125.103
-125.091
-125.078
-125.064
-125.046
-125.03
-125.166
-125.167
-125.167
-125.168
-125.168
-125.168
-125.168
-125.168
-125.167
-125.165
-125.163
-125.16
-125.156
-125.153
-125.148
-125.144
-125.139
-125.133
-125.128
-125.122
-125.116
-125.11
-125.104
-125.097
-125.089
-125.08
-125.069
-125.061
-547.581
-547.754
-547.972
-548.096
-547.832
-546.92
-545.186
-542.46
-538.701
-534.157
-529.312
-524.43
-519.242
-513.457
-507.079
-500.219
-492.986
-485.478
-477.804
-470.377
-463.493
-456.763
-449.71
-442.251
-434.513
-426.659
-418.687
-410.957
-628.525
-628.666
-628.951
-629.327
-629.525
-628.817
-626.303
-621.265
-613.46
-603.693
-593.42
-583.292
-573.107
-562.746
-552.386
-542.312
-532.59
-523.259
-514.162
-505.046
-495.814
-486.469
-477.095
-467.635
-458.171
-448.555
-439.021
-429.408
-613.271
-613.151
-612.871
-612.278
-611.263
-609.693
-607.426
-604.291
-599.94
-594.304
-587.432
-579.573
-571.25
-562.82
-554.306
-545.672
-536.873
-527.842
-518.612
-509.271
-499.894
-490.545
-481.224
-471.878
-462.55
-453.053
-443.665
-433.859
-630.464
-630.426
-630.129
-629.264
-627.594
-625.066
-621.584
-616.9
-611.023
-604.24
-596.804
-588.995
-581.004
-572.818
-564.433
-555.881
-547.16
-538.275
-529.252
-520.108
-510.835
-501.384
-491.769
-481.99
-472.114
-462.089
-452.094
-441.852
-653.712
-653.067
-651.544
-648.688
-644.726
-640.083
-634.869
-628.853
-621.878
-614.016
-605.716
-597.296
-588.717
-580.007
-571.175
-562.197
-553.072
-543.803
-534.381
-524.8
-515.071
-505.216
-495.252
-485.163
-474.985
-464.639
-454.256
-443.702
-653.178
-652.708
-651.615
-649.843
-647.335
-643.561
-638.271
-631.764
-624.469
-616.763
-608.718
-600.351
-591.81
-583.122
-574.274
-565.232
-555.98
-546.539
-536.937
-527.197
-517.339
-507.364
-497.268
-487.042
-476.717
-466.233
-455.797
-445.094
-668.303
-667.639
-666.117
-663.728
-660.283
-655.293
-648.873
-641.357
-633.103
-624.392
-615.439
-606.352
-597.136
-587.794
-578.322
-568.714
-558.972
-549.085
-539.053
-528.878
-518.567
-508.123
-497.551
-486.852
-476.03
-465.062
-454.046
-442.919
-661.458
-661.155
-660.102
-657.761
-653.993
-648.88
-642.461
-635.043
-626.968
-618.511
-609.804
-600.914
-591.894
-582.755
-573.487
-564.061
-554.462
-544.692
-534.769
-524.714
-514.547
-504.271
-493.889
-483.4
-472.808
-462.098
-451.436
-440.478
-659.946
-659.415
-657.837
-654.947
-650.821
-645.389
-638.709
-631.093
-622.864
-614.278
-605.471
-596.508
-587.416
-578.19
-568.812
-559.262
-549.535
-539.631
-529.56
-519.331
-508.955
-498.433
-487.774
-476.976
-466.03
-454.979
-443.853
-432.609
-125.097
-125.098
-125.098
-125.098
-125.098
-125.099
-125.099
-125.099
-125.099
-125.098
-125.098
-125.096
-125.095
-125.094
-125.092
-125.091
-125.089
-125.089
-125.088
-125.088
-125.088
-125.09
-125.092
-125.097
-125.105
-125.113
-125.122
-125.139
-123.646
-123.646
-123.646
-123.646
-123.646
-123.646
-123.646
-123.647
-123.647
-123.648
-123.649
-123.651
-123.653
-123.656
-123.659
-123.662
-123.666
-123.67
-123.674
-123.678
-123.683
-123.689
-123.695
-123.701
-123.708
-123.716
-123.726
-123.732
-125.156
-125.157
-125.158
-125.159
-125.161
-125.161
-125.162
-125.161
-125.16
-125.159
-125.156
-125.153
-125.15
-125.146
-125.143
-125.139
-125.136
-125.133
-125.13
-125.128
-125.127
-125.127
-125.126
-125.127
-125.129
-125.132
-125.134
-125.144
-123.493
-123.494
-123.494
-123.494
-123.494
-123.495
-123.495
-123.495
-123.495
-123.496
-123.496
-123.497
-123.498
-123.499
-123.5
-123.501
-123.503
-123.504
-123.506
-123.509
-123.511
-123.514
-123.517
-123.52
-123.523
-123.527
-123.531
-123.536
-123.687
-123.687
-123.687
-123.688
-123.688
-123.688
-123.688
-123.689
-123.689
-123.69
-123.69
-123.691
-123.692
-123.693
-123.694
-123.695
-123.697
-123.698
-123.701
-123.703
-123.706
-123.709
-123.712
-123.716