/*--------------------------------*- C++ -*----------------------------------*\
| =========                 |                                                 |
| \\      /  F ield         | OpenFOAM: The Open Source CFD Toolbox           |
|  \\    /   O peration     | Version:  2412                                  |
|   \\  /    A nd           | Website:  www.openfoam.com                      |
|    \\/     M anipulation  |                                                 |
\*---------------------------------------------------------------------------*/
FoamFile
{
    version     2.0;
    format      ascii;
    arch        "LSB;label=32;scalar=64";
    class       volVectorField;
    location    "3000";
    object      wallShearStress;
}
// * * * * * * * * * * * * * * * * * * * * * * * * * * * * * * * * * * * * * //

dimensions      [0 2 -2 0 0 0 0];

internalField   uniform (0 0 0);

boundaryField
{
    frontAndBack
    {
        type            empty;
    }
    symmetry
    {
        type            symmetryPlane;
    }
    outlet
    {
        type            calculated;
        value           uniform (0 0 0);
    }
    wall
    {
        type            calculated;
        value           nonuniform List<vector> 
1155
(
(0.0227877 -0.00135449 -2.01167e-23)
(0.0225828 -0.00131309 2.56911e-21)
(0.022444 -0.00127728 1.00245e-23)
(0.022303 -0.0012405 2.55771e-21)
(0.022146 -0.0012038 2.50683e-27)
(0.0220191 -0.00116933 -2.53667e-21)
(0.0218863 -0.00113462 -2.12339e-26)
(0.0217696 -0.00110078 -9.91339e-24)
(0.0215908 -0.00106378 -2.54021e-21)
(0.0214546 -0.00103151 2.53519e-21)
(0.0213371 -0.000998234 -1.83671e-40)
(-0.336205 -0.000629801 0)
(-0.304097 -0.00132132 0)
(-0.230607 -0.0045186 0)
(-0.134633 -0.00667385 0)
(0.16396 -0.0103578 0)
(0.506685 -0.0062573 0)
(0.168279 -0.000152368 0)
(0.173984 -0.000126492 0)
(0.177838 -8.43397e-05 0)
(0.180711 -7.18342e-05 0)
(0.183446 -8.10132e-05 0)
(0.0757497 0.000876071 0)
(0.0276042 0.000813549 0)
(-0.0162781 0.00155198 0)
(-0.0627931 0.000430878 0)
(-0.0738343 -0.000127778 0)
(-0.0701156 3.35749e-05 0)
(-0.49835 -0.000172878 0)
(-0.48867 -0.000168314 0)
(-0.482556 -0.000210762 0)
(-0.478497 -0.000240097 0)
(-0.471928 -0.000211939 0)
(-0.464717 -0.000310654 0)
(-0.253046 0.0292586 -9.74098e-20)
(-0.236015 0.0277166 1.58783e-19)
(-0.220671 0.0263085 5.73654e-25)
(-0.208703 0.0252412 3.17688e-19)
(-0.197678 0.0242134 6.3816e-19)
(-0.186055 0.0230485 -6.2328e-22)
(-0.1737 0.0217407 3.20684e-19)
(0.0170744 -9.28149e-05 -6.00344e-22)
(0.0171119 -7.22013e-05 0)
(0.0170903 -5.17441e-05 6.93394e-39)
(0.0171571 -3.28064e-05 -7.5059e-23)
(0.0172473 -1.30553e-05 3.7508e-23)
(0.0174167 -4.39198e-06 0)
(0.0176138 -3.8112e-06 0)
(0.0177681 -3.89592e-06 0)
(0.0179475 -3.42455e-06 0)
(0.0180744 -3.44799e-06 0)
(0.0182574 -3.22239e-06 0)
(0.287015 -0.000139543 0)
(0.293344 -0.00014598 0)
(0.300102 -0.000146285 0)
(0.305856 -0.000123851 0)
(0.310959 -0.000118895 0)
(0.0143857 -0.00951625 2.32722e-25)
(0.0154898 -0.0100011 -1.31976e-22)
(0.0165817 -0.0104582 -1.32391e-22)
(0.017708 -0.0109159 -1.76962e-26)
(0.0187929 -0.0113301 -3.38288e-20)
(0.0198915 -0.0117351 -4.70198e-38)
(0.0209524 -0.0121025 3.40348e-20)
(0.0220115 -0.0124549 1.57863e-25)
(0.0230446 -0.0127792 -3.40878e-20)
(-0.24373 3.18816e-05 0)
(-0.245428 6.61605e-05 0)
(0.018333 -1.69698e-06 0)
(0.0184445 -3.05303e-06 0)
(0.0185653 -1.92552e-06 0)
(0.0186459 -2.43e-06 0)
(0.0187526 -2.12382e-06 0)
(0.0188597 -2.4057e-06 0)
(0.018928 -1.08603e-06 0)
(0.0189966 -2.42977e-06 0)
(0.0191059 -1.01738e-06 0)
(0.0191071 -1.02554e-06 0)
(0.0191959 -1.65421e-06 0)
(-0.16442 0.00029292 0)
(-0.17393 0.000386747 0)
(-0.187677 0.000455472 0)
(-0.198831 -0.000254499 0)
(-0.193057 -0.000349044 0)
(0.0968083 -3.5269e-05 0)
(0.0967037 8.42976e-05 0)
(0.0936604 0.00013177 0)
(0.0905669 7.93915e-05 0)
(0.091468 -0.000181774 0)
(-0.247714 -4.58882e-06 0)
(-0.261939 0.00072132 0)
(-0.24764 -1.9193e-05 0)
(-0.247008 -6.13734e-05 0)
(0.456706 -0.000125933 0)
(0.462548 -0.000133622 0)
(0.467848 -8.64753e-05 0)
(0.471801 -7.90476e-05 0)
(-0.290717 -0.000384711 0)
(-0.243813 5.54057e-05 0)
(-0.22243 4.81464e-05 0)
(-0.247174 4.14776e-05 0)
(-0.264326 -0.000267872 0)
(-0.254351 -0.000220638 0)
(-0.0975549 0.332998 1.46937e-39)
(0.00374876 -0.0908464 -2.92161e-23)
(0.0652511 0.383511 -8.09361e-19)
(-0.0110081 0.0697871 -1.10859e-20)
(0.53426 1.00608 -6.92452e-22)
(0.844926 1.62682 3.54863e-19)
(1.06946 1.51043 1.36674e-21)
(1.45369 1.99171 2.03251e-18)
(1.7521 1.88234 2.45317e-18)
(-0.244656 -4.98084e-06 0)
(-0.244314 -0.000106013 0)
(-0.247458 -0.000222353 0)
(-0.0495331 -0.000123653 0)
(-0.0436301 -0.00012863 0)
(-0.0375099 -0.000130537 0)
(-0.031222 -0.000131858 0)
(-0.0248164 -0.000128311 0)
(-0.235504 -0.000161083 0)
(-0.313949 -9.8333e-05 0)
(-0.229457 -0.000150543 0)
(-0.303494 -0.000358501 0)
(-0.240489 -0.000123857 0)
(-0.310928 -0.000240227 0)
(-0.275916 -0.000567751 0)
(-0.217032 -0.00013773 0)
(-0.238289 0.000693147 0)
(0.235939 0.000887342 0)
(0.196455 0.000979999 0)
(0.151616 0.00107819 0)
(0.0995073 0.00124673 0)
(0.0372757 0.00231492 0)
(-0.267424 -0.00142384 0)
(-0.287164 0.000570981 0)
(-0.111437 -0.000126643 0)
(-0.223699 -0.00036058 0)
(-0.0831371 -0.000108867 0)
(-0.00023841 -0.000204651 0)
(-0.0185087 -0.00012449 0)
(-0.374114 -0.00131201 0)
(-0.438794 0.00615007 0)
(-0.711119 0.00548893 0)
(-0.920794 0.00396432 0)
(-1.03188 0.00185519 0)
(-1.08272 -0.000130618 0)
(0.0331266 -0.00495671 -2.4065e-23)
(0.0329631 -0.00487574 -1.22995e-20)
(0.0328105 -0.00479767 2.39809e-23)
(0.0326549 -0.00471968 -1.22133e-20)
(0.0324972 -0.00464149 -2.93874e-39)
(0.0322405 -0.00454975 2.36461e-23)
(0.0320331 -0.00446962 -1.21102e-20)
(0.0318631 -0.0043932 2.73302e-37)
(0.0316874 -0.00431843 1.02516e-26)
(0.0315444 -0.00424708 1.09619e-39)
(-0.136548 9.26437e-05 0)
(-0.128761 -0.000441476 0)
(-0.139189 0.000394131 0)
(-0.152192 9.35851e-05 0)
(-0.154729 2.34373e-05 0)
(-0.156015 -8.083e-05 0)
(0.37384 0.000598565 0)
(0.352065 0.000600846 0)
(0.328043 0.00065192 0)
(0.300977 0.000720301 0)
(0.270528 0.000787247 0)
(0.367886 -0.00022213 0)
(0.377517 -0.000261702 0)
(0.388448 -0.000272054 0)
(0.399032 -0.000265306 0)
(0.409667 -0.000271411 0)
(0.492991 0.000185621 0)
(0.488201 0.000203688 0)
(0.48258 0.000243725 0)
(0.475199 0.000293757 0)
(0.465645 0.000336329 0)
(0.0055846 -0.00478398 -6.62435e-20)
(0.00646512 -0.00535431 1.29811e-22)
(0.00725084 -0.00581914 1.32825e-19)
(0.00824285 -0.00641405 6.68175e-20)
(0.00911204 -0.00688472 6.6837e-20)
(0.0101611 -0.00746343 -3.3623e-20)
(0.0111635 -0.0079757 3.3692e-20)
(0.0122105 -0.0084968 3.34988e-20)
(0.0132943 -0.00901555 2.63078e-22)
(0.35811 -0.0236095 -1.51286e-23)
(0.324082 -0.0218923 3.86803e-22)
(0.286271 -0.0195199 3.84075e-22)
(0.242751 -0.0166137 -3.84397e-22)
(0.19003 -0.0128192 4.70198e-38)
(0.126812 -0.00808127 -1.93324e-19)
(0.0528695 -0.00154873 5.76428e-24)
(-0.371018 0.0757055 1.34885e-21)
(-0.333772 0.0678971 -3.57575e-22)
(-0.278024 0.0561675 5.92937e-21)
(-0.192191 0.0397445 2.71335e-21)
(-0.146719 0.0320911 -1.36312e-21)
(-0.170379 0.0374673 1.88079e-37)
(-0.194462 0.0440535 -3.64717e-19)
(-0.0366282 0.00282939 0)
(-0.122316 0.00255948 0)
(-0.219413 0.00225265 0)
(-0.315232 0.00179154 0)
(-0.392415 0.000923384 0)
(0.0220403 -2.3887e-06 0)
(0.0221513 -2.41267e-06 0)
(0.022268 -2.54536e-06 0)
(0.022385 -2.51198e-06 0)
(0.0225068 -2.73481e-06 0)
(0.0226356 -2.71585e-06 0)
(0.0227632 -2.87476e-06 0)
(0.0229009 -2.92424e-06 0)
(0.0230365 -3.03235e-06 0)
(0.0231832 -3.16768e-06 0)
(0.0233299 -3.21274e-06 0)
(0.0234833 -3.33366e-06 0)
(0.0236383 -3.36485e-06 0)
(0.0237986 -3.53912e-06 0)
(-0.628273 0.0096556 0)
(-0.78054 -0.00148119 0)
(-0.717132 -0.00227426 0)
(-0.643234 -0.00363659 0)
(-0.513208 -0.00879791 0)
(-0.399719 -0.00270209 0)
(0.0317681 -0.0147154 1.1703e-25)
(0.0324541 -0.0147897 3.39846e-20)
(0.0330892 -0.0148393 3.38775e-20)
(0.0337102 -0.0148816 -3.37659e-20)
(0.034314 -0.0149146 3.37159e-20)
(0.0348815 -0.0149305 6.6058e-23)
(0.0354122 -0.0149303 -3.26787e-36)
(0.0359133 -0.0149173 -3.36077e-20)
(0.0363717 -0.014887 -3.36733e-20)
(0.0410662 -0.0129172 3.17536e-20)
(0.0411168 -0.0127781 0)
(0.0411595 -0.0126398 -1.21286e-26)
(0.0411943 -0.0124998 6.28391e-20)
(0.0411347 -0.0123353 0)
(0.0411751 -0.0122054 -1.89423e-36)
(0.0411833 -0.0120648 2.85057e-37)
(0.0411725 -0.0119236 -6.03725e-23)
(0.0411849 -0.0117891 6.03742e-23)
(-0.132768 -0.000103281 0)
(-0.128001 -0.000111228 0)
(-0.122694 -0.000126164 0)
(-0.117017 -0.000124908 0)
(0.0270427 -6.08193e-06 0)
(0.0273297 -6.30586e-06 0)
(0.0276278 -6.58467e-06 0)
(0.0279391 -6.839e-06 0)
(0.0282618 -7.14062e-06 0)
(0.0286007 -7.4674e-06 0)
(0.0289527 -7.773e-06 0)
(0.0293211 -8.15805e-06 0)
(0.0297073 -8.52539e-06 0)
(0.0301104 -8.93961e-06 0)
(0.0305344 -9.39354e-06 0)
(0.030979 -9.83848e-06 0)
(0.0314444 -1.03446e-05 0)
(0.0319363 -1.0935e-05 0)
(0.0324546 -1.15073e-05 0)
(-0.105479 -0.000129272 0)
(-0.0994273 -0.000127155 0)
(-0.0935425 -0.000119596 0)
(-0.0881775 -0.000109126 0)
(-0.151139 -0.000351291 0)
(-0.139753 -0.000921044 0)
(-0.111304 -0.000935286 0)
(-0.0669109 -0.00136067 0)
(-0.0104655 -0.00164736 0)
(0.0469973 -0.000986131 0)
(0.259476 -0.000139537 0)
(0.264526 -0.00013208 0)
(0.270026 -0.000130788 0)
(0.275335 -0.000115046 0)
(0.280672 -0.000127496 0)
(-0.372083 -0.00180706 0)
(-0.322502 -0.00172964 0)
(-0.283409 -0.000502063 0)
(-0.274784 0.000307881 0)
(-0.309257 0.00138331 0)
(0.0198766 -7.1831e-07 0)
(0.0198557 7.0414e-07 0)
(0.0198597 -9.388e-07 0)
(0.0198959 1.0669e-07 0)
(0.0198792 -5.59989e-07 0)
(0.0199216 -1.88147e-07 0)
(0.0199064 8.53743e-09 0)
(0.0199151 -5.63109e-08 0)
(0.0199161 -4.93496e-08 0)
(0.0199133 1.29656e-07 0)
(0.0199125 -1.17973e-07 0)
(0.10595 -0.000373521 0)
(0.114313 -8.30154e-05 0)
(0.117064 -0.00014434 0)
(0.12647 -0.0002165 0)
(0.134333 -0.000174168 0)
(-0.627643 0.497288 1.82725e-18)
(-1.04443 0.796207 1.71293e-18)
(-0.746515 0.553314 6.55227e-22)
(-0.312693 0.195556 1.04985e-18)
(0.820032 -0.685051 -3.99717e-21)
(0.543015 -0.448005 1.19628e-22)
(0.0375194 0.00121654 4.04266e-22)
(-0.363155 0.323023 -6.11032e-23)
(0.0898273 -0.117235 2.06356e-18)
(0.000151688 0.0015089 0)
(-2.77798e-05 0.000857981 1.98508e-21)
(-6.12733e-05 0.000787076 -2.06814e-37)
(-0.000100436 0.000780974 -2.93874e-39)
(-0.000102547 0.000561917 1.59252e-20)
(-0.000159986 0.000685565 -3.19004e-20)
(-0.000137996 0.000497869 -3.18739e-20)
(-0.000185555 0.000556958 -1.24932e-22)
(-0.000164343 0.000428805 -3.19624e-20)
(0.0378527 -0.00779137 1.37452e-20)
(0.0376925 -0.00767537 5.33842e-23)
(0.0375576 -0.00756614 -5.33854e-23)
(0.0373983 -0.00745308 -2.7176e-20)
(0.0372438 -0.00734303 -1.35363e-20)
(0.0370869 -0.00723347 -5.25851e-23)
(0.0369222 -0.00712412 1.34862e-20)
(0.0367666 -0.00701796 5.87747e-39)
(0.0366091 -0.00691284 -0)
(2.17983 2.02979 5.50128e-18)
(2.26758 1.74688 0)
(1.78848 1.07734 -4.74647e-19)
(1.04615 0.602746 -2.34819e-18)
(-0.474995 -0.174473 1.50463e-36)
(-0.597409 -0.168111 -5.8583e-21)
(-0.393479 0.0198472 1.80685e-18)
(-2.04598 0.121372 -8.10158e-19)
(-0.835319 0.541914 8.52728e-19)
(-0.71411 0.428772 4.36672e-22)
(-0.244176 0.128589 1.14528e-22)
(-0.133785 0.102652 -2.35099e-38)
(-0.304599 0.212169 -1.90331e-20)
(-0.18377 0.0989608 -7.52316e-37)
(0.370811 -0.256246 9.26786e-19)
(-0.0720247 0.0753148 -1.02067e-19)
(0.415698 -0.0766048 -1.34775e-23)
(0.346013 -0.0646557 1.88079e-37)
(0.261539 -0.0486106 -3.89006e-19)
(0.156181 -0.0273104 3.86613e-19)
(0.0265979 -0.000487604 3.79253e-19)
(-0.12263 0.028994 -3.71865e-19)
(-0.260659 0.0557286 1.38734e-21)
(-0.351081 0.0726481 -1.39209e-21)
(-0.00963518 0.00571136 -7.25966e-19)
(-0.0904868 0.0302814 -7.52316e-37)
(-0.133233 0.0423096 7.12237e-19)
(-0.110058 0.0355522 2.43947e-20)
(-0.0809396 0.0242488 -7.52316e-37)
(0.000507808 7.60556e-05 -1.43664e-18)
(-0.0343462 0.0124918 -1.59778e-22)
(-0.1591 0.0200688 -3.2158e-19)
(-0.141888 0.0180175 6.28086e-22)
(-0.121505 0.0154745 -6.33581e-22)
(-0.0978407 0.0125243 6.3387e-22)
(-0.0753688 0.00987133 7.70359e-25)
(-0.0639473 0.00906062 -6.45376e-22)
(0.0462342 -3.5537e-05 0)
(0.0479573 -3.98586e-05 0)
(0.0498912 -4.49697e-05 0)
(0.0520839 -5.14546e-05 0)
(0.0546035 -5.95177e-05 0)
(0.057529 -6.9935e-05 0)
(0.0609913 -8.38596e-05 0)
(0.0651706 -0.000102969 0)
(0.0703487 -0.00013061 0)
(0.0769937 -0.000172912 0)
(0.0859118 -0.000243063 0)
(0.0986792 -0.000365346 0)
(0.118066 -0.000635651 0)
(0.153604 -0.00126493 0)
(-0.39056 0.0334884 3.17803e-22)
(-0.354337 0.0299314 -1.65461e-22)
(-0.29742 0.0249605 5.99967e-22)
(-0.241606 0.021274 -3.26337e-19)
(-0.205454 0.0191277 1.64001e-19)
(-0.197254 0.0190977 2.35099e-38)
(0.0194063 -5.14505e-07 0)
(0.0194341 -6.58407e-07 0)
(0.0194673 -6.54496e-07 0)
(0.0194996 -7.37365e-07 0)
(0.0195358 -6.96347e-07 0)
(0.0195678 -6.43218e-07 0)
(0.0195976 -8.0691e-07 0)
(0.0196495 -1.101e-06 0)
(0.0196917 -7.70067e-07 0)
(0.01973 -9.38674e-07 0)
(0.0197735 -8.5594e-07 0)
(0.0198184 -1.07156e-06 0)
(0.0198664 -8.75561e-07 0)
(0.0199079 -1.03285e-06 0)
(0.270715 -0.0102591 8.75847e-37)
(0.279642 -0.0109196 6.79074e-42)
(0.28778 -0.011577 6.1279e-39)
(0.297133 -0.0123692 -5.87747e-39)
(0.309053 -0.013339 -8.3456e-20)
(0.323598 -0.0143921 -8.4303e-20)
(-0.159514 -0.000446117 0)
(-0.125627 -0.000989977 -2.26367e-36)
(-0.0686852 -0.000755386 5.57997e-42)
(-0.0182627 -0.00117571 2.59342e-25)
(0.0404474 -0.00171327 -1.70437e-20)
(0.0924837 -0.00282057 -6.71526e-23)
(0.0359533 -0.228658 -3.262e-37)
(0.557703 -2.0685 3.83589e-21)
(1.51452 -4.88046 -2.14632e-18)
(0.488907 -1.1071 -4.43417e-21)
(-1.15591 6.02793 8.72724e-19)
(-1.2086 3.69349 6.98175e-22)
(0.598294 -5.1782 5.23812e-19)
(0.174242 -1.02962 1.58098e-20)
(-0.306544 0.000238488 0)
(-0.0208761 0.00698962 -1.45641e-18)
(0.108317 -0.0654093 -7.3428e-19)
(0.306498 -0.179113 -1.49417e-18)
(0.572783 -0.335116 8.17504e-23)
(0.923187 -0.543167 -8.14152e-19)
(1.21788 -0.712186 3.27969e-21)
(1.11887 -0.644507 1.91828e-19)
(0.604658 -0.334073 0)
(0.0396795 -0.0141486 -3.27858e-20)
(0.0398816 -0.0140369 -3.2627e-20)
(0.0400854 -0.0139276 -6.37536e-23)
(0.0402553 -0.0138089 -3.24299e-20)
(0.0404217 -0.0136914 3.23286e-20)
(0.0405678 -0.0135693 -3.22889e-20)
(0.040702 -0.0134453 -6.27561e-23)
(0.0408119 -0.0133156 6.2758e-23)
(0.0409157 -0.0131866 -3.19095e-20)
(0.0409935 -0.0130513 -6.23391e-23)
(-0.0968214 0.000829886 0)
(-0.11563 0.000629982 0)
(-0.142866 0.000851481 -7.2694e-41)
(-0.168924 0.000874692 2.29646e-37)
(-0.185514 0.000745958 4.21228e-21)
(-0.185196 0.000346508 -8.37181e-21)
(0.41494 -0.0219307 3.52911e-22)
(0.423837 -0.0228895 -9.18386e-20)
(0.430536 -0.0237257 1.17549e-38)
(0.435551 -0.0245253 3.68064e-22)
(0.439791 -0.0252741 -7.3949e-22)
(0.441243 -0.0258582 -9.51483e-20)
(0.440413 -0.0263262 -3.77529e-22)
(-0.151057 -0.000100048 0)
(-0.146211 -0.000100345 0)
(-0.141422 -9.8306e-05 0)
(-0.137203 -9.33727e-05 0)
(-0.347975 -0.00206893 0)
(-0.305619 -0.00257502 0)
(-0.195684 -0.00261066 0)
(-0.0674504 -0.000964069 0)
(-0.0656463 -0.00129618 0)
(-0.132755 0.000797667 0)
(0.476011 -6.7101e-05 0)
(0.479366 -4.01258e-05 0)
(0.482288 -4.57791e-05 0)
(0.485703 -4.89854e-05 0)
(0.489094 -3.7707e-05 0)
(0.0294377 -0.00341311 -5.79687e-21)
(0.0292307 -0.00334408 4.47951e-23)
(0.0290539 -0.00328239 5.69392e-21)
(0.0289173 -0.00322311 -5.44646e-27)
(0.0287453 -0.00316238 -5.68129e-21)
(0.0286233 -0.00310632 -5.66375e-21)
(0.0284542 -0.00304588 -5.64678e-21)
(0.0282534 -0.00298226 5.62939e-21)
(0.0280627 -0.00292267 0)
(0.0279091 -0.0028663 -2.18283e-23)
(0.00597224 -0.000162522 0)
(0.0120186 -0.000157166 0)
(-0.204697 -0.000127893 0)
(-0.210542 -9.82687e-05 0)
(-0.186203 -0.000161483 0)
(-0.179289 -0.000171629 0)
(-0.171721 -0.000158461 0)
(-0.165036 -6.81537e-05 0)
(-0.162335 9.43653e-05 0)
(0.0411342 -0.0116405 -5.99249e-23)
(0.0411261 -0.0115046 -3.05643e-20)
(0.0409803 -0.0113334 3.04483e-20)
(0.0409486 -0.0111997 -3.03364e-20)
(0.040903 -0.0110601 -3.0279e-20)
(0.0408254 -0.0109169 1.17549e-38)
(0.0407878 -0.0107844 7.02542e-39)
(0.0406892 -0.0106393 -5.83556e-23)
(0.0406189 -0.0105031 2.98787e-20)
(0.0405116 -0.01036 -2.9706e-20)
(0.0187333 -0.000153728 0)
(0.0253637 -0.000155221 0)
(0.0327907 -0.00018164 0)
(0.0406414 -0.000198873 0)
(0.049265 -0.000220405 0)
(-0.174792 -0.000184567 0)
(-0.16716 -0.000130078 0)
(-0.161108 -0.00011879 0)
(-0.15559 -0.000100565 0)
(-0.221476 1.8658e-05 0)
(0.0277527 -0.00281049 -5.5364e-21)
(0.0275562 -0.00274987 -6.35632e-26)
(0.0273658 -0.00269346 -4.33342e-23)
(0.0272218 -0.00264018 2.16387e-23)
(0.0270449 -0.00258584 5.53754e-21)
(0.0269283 -0.00253586 -1.07889e-23)
(0.0266938 -0.00247581 -1.07274e-23)
(0.026548 -0.00242697 1.06679e-23)
(0.0263996 -0.00237608 -1.0668e-23)
(0.0262353 -0.00232571 4.81154e-27)
(0.31551 -0.000101349 0)
(0.319785 -9.6493e-05 0)
(0.323439 -8.48348e-05 0)
(0.327105 -0.000101605 0)
(0.330804 -8.21467e-05 0)
(0.333267 -6.14144e-05 0)
(0.335201 -4.09677e-05 0)
(0.336194 -2.39564e-05 0)
(0.337509 -3.68287e-05 0)
(0.0187062 1.90903e-08 0)
(0.0187049 -2.40907e-08 0)
(0.0187113 -1.29572e-07 0)
(0.0187179 -1.06768e-07 0)
(0.0187243 -1.93489e-07 0)
(0.0187381 -2.6367e-07 0)
(0.0187489 -2.3759e-07 0)
(0.0187631 -2.52237e-07 0)
(0.0187712 -1.87296e-07 0)
(0.0187866 -3.41675e-07 0)
(0.0187991 -1.92713e-07 0)
(0.0188118 -3.57679e-07 0)
(0.0188284 -2.63314e-07 0)
(0.223035 -0.000217017 0)
(0.232234 -0.000245715 0)
(0.240772 -0.000212818 0)
(0.247674 -0.000188856 0)
(0.253912 -0.000160005 0)
(0.11967 -0.0539755 1.18519e-23)
(0.0660887 -0.0239526 -1.44569e-40)
(-0.139476 0.0726493 -7.52316e-37)
(-0.256453 0.124956 -7.19121e-19)
(-0.194445 0.0963546 -3.76158e-36)
(-0.154032 0.0761917 -5.98667e-35)
(-0.118089 0.0601722 0)
(-0.0902375 0.0453038 -6.82811e-19)
(0.0348351 -0.0058325 0)
(0.0346824 -0.00574335 1.27497e-20)
(0.0344764 -0.00564456 -2.47643e-23)
(0.034281 -0.005552 1.26571e-20)
(0.0341335 -0.00546607 2.46754e-23)
(0.0339566 -0.00537799 1.25414e-20)
(0.0338239 -0.00529657 2.44986e-23)
(0.0336567 -0.00521111 2.43229e-23)
(0.0334936 -0.00512634 -2.43235e-23)
(0.0332787 -0.00503601 -1.23868e-20)
(0.0364555 -0.00680978 2.93874e-37)
(0.0363023 -0.00670821 -1.32327e-20)
(0.0361472 -0.00660729 0)
(0.035993 -0.00650803 1.31339e-20)
(0.0358361 -0.00640932 2.55082e-23)
(0.0356788 -0.00631177 1.30105e-20)
(0.0355008 -0.00621155 -2.59997e-20)
(0.0353363 -0.00611588 2.53191e-23)
(0.0351759 -0.00602132 1.28659e-20)
(0.0350155 -0.00592824 2.51321e-23)
(0.553643 -0.097991 3.71355e-19)
(0.557013 -0.0996587 3.7548e-19)
(0.561921 -0.101543 -3.81861e-19)
(0.559472 -0.101931 1.50421e-21)
(0.544872 -0.0999683 -1.51744e-21)
(0.516012 -0.0951783 -3.90558e-19)
(0.468293 -0.0865619 -1.96893e-19)
(0.138937 -6.67223e-05 0)
(0.141054 -7.70248e-05 0)
(0.146664 -0.000142198 0)
(0.154589 -0.000188559 0)
(0.161764 -0.000164825 0)
(0.564424 0.010298 0)
(0.146104 0.0227516 0)
(-1.06663 0.0200307 0)
(-1.25602 -0.0109203 0)
(-0.715207 -0.0154521 0)
(0.0190319 7.89653e-08 0)
(0.019034 2.83802e-07 0)
(0.019009 1.12941e-07 0)
(0.0190278 1.59681e-07 0)
(0.0189773 1.14863e-06 0)
(0.0189537 1.68283e-07 0)
(0.0189399 7.94829e-07 0)
(0.018908 1.35009e-07 0)
(0.0189112 5.33027e-07 0)
(0.0188732 5.30133e-07 0)
(0.0188591 5.0539e-07 0)
(0.0188349 3.89328e-07 0)
(0.0192477 -8.99836e-07 0)
(0.0192804 -9.97421e-07 0)
(0.0193393 -1.27399e-06 0)
(0.0193873 -6.32818e-07 0)
(0.0193952 -4.47708e-07 0)
(0.0194364 -9.10906e-07 0)
(0.0194673 -5.92502e-07 0)
(0.0195016 -9.79514e-07 0)
(0.0195448 -8.36107e-07 0)
(0.0195868 -1.02853e-06 0)
(0.019625 -8.36772e-07 0)
(-0.228587 0.0516712 6.98486e-19)
(-0.247336 0.0564599 -3.48562e-19)
(-0.26347 0.0605968 3.48749e-19)
(-0.288373 0.0676305 -3.4923e-19)
(-0.330553 0.0780483 1.35022e-21)
(-0.360737 0.0854188 -7.34684e-40)
(-0.359667 0.0855349 5.91178e-25)
(-0.342333 0.0820053 1.26366e-37)
(3.19828 -1.92498 -3.29236e-21)
(7.76145 -5.72811 2.34225e-18)
(6.31131 -10.2638 1.35586e-20)
(1.77515 -10.8029 7.36979e-19)
(-1.90923 -8.33284 1.65368e-21)
(-3.61059 -5.49729 -5.92649e-19)
(-3.07493 -2.18345 -2.87586e-19)
(-1.72811 -0.46484 -4.63277e-20)
(-0.370506 -0.0624102 6.93542e-37)
(-0.0616373 -0.000212134 0)
(-0.0569842 -1.56966e-05 0)
(-0.0574898 3.88638e-05 0)
(-0.0608898 0.000155339 0)
(-0.0686156 0.00024741 0)
(-0.0803962 0.000343489 0)
(-0.0851965 0.0129458 4.48337e-20)
(-0.129918 0.0205446 -2.83854e-19)
(-0.22774 0.0353794 6.51856e-19)
(-0.333563 0.0509731 3.20763e-19)
(-0.440302 0.0668243 0)
(-0.539035 0.0810011 0)
(-0.604565 0.0905217 3.01036e-19)
(0.500827 3.02634e-05 0)
(0.501164 5.82632e-05 0)
(0.50056 8.8569e-05 0)
(0.498787 0.000119098 0)
(0.496516 0.000140043 0)
(0.339288 -4.54989e-05 0)
(0.342176 -7.99745e-05 0)
(0.346154 -0.000109584 0)
(0.351971 -0.000168801 0)
(0.35958 -0.00018935 0)
(0.0393454 -0.00901952 1.43424e-20)
(0.0391839 -0.00888592 -1.42872e-20)
(0.0390393 -0.00875796 2.83515e-20)
(0.0389015 -0.00863371 0)
(0.0387191 -0.00849976 -1.40655e-20)
(0.0385519 -0.00837392 -1.17549e-38)
(0.0384165 -0.00825446 1.39575e-20)
(0.038254 -0.00813264 -1.38505e-20)
(0.0381387 -0.00802083 1.37427e-20)
(0.0379787 -0.00790202 1.38522e-20)
(0.0190753 -5.39519e-07 0)
(0.0191061 -7.04427e-07 0)
(0.0191396 -6.7107e-07 0)
(0.0191697 -5.96493e-07 0)
(0.0191942 -4.54175e-07 0)
(0.0192154 -4.99454e-07 0)
(0.0192415 -4.36107e-07 0)
(0.019257 -2.54839e-07 0)
(0.0192708 -3.26233e-07 0)
(0.0192916 -5.46093e-07 0)
(0.0193255 -7.08361e-07 0)
(0.0193549 -5.38097e-07 0)
(0.0193803 -5.56421e-07 0)
(-0.154489 -0.0507935 2.16613e-20)
(-0.0257364 -0.0167167 -7.26609e-23)
(-0.0124863 -0.0106433 3.25649e-20)
(-0.0024276 -0.00352988 -1.31732e-24)
(-0.363229 0.0390151 -4.62466e-26)
(-0.362967 0.0392098 1.59244e-19)
(-0.353003 0.0383794 1.59838e-19)
(-0.33546 0.0368622 -3.17039e-19)
(-0.315404 0.0350501 -1.23946e-21)
(-0.292368 0.0329377 -1.57935e-19)
(-0.271058 0.0305238 -2.11589e-37)
(0.455183 0.000362506 0)
(0.442902 0.000440454 0)
(0.427306 0.000545839 0)
(0.411143 0.000688581 0)
(0.393984 0.000590585 0)
(0.0197653 4.76302e-07 0)
(0.0197385 3.6664e-07 0)
(0.0197286 3.05702e-07 0)
(0.019716 1.34024e-07 0)
(0.0197131 8.09427e-08 0)
(0.0197107 1.03398e-07 0)
(0.0196981 2.05766e-07 0)
(0.0196977 2.63717e-07 0)
(0.0196598 1.0625e-06 0)
(0.0196214 5.15003e-07 0)
(0.0196027 6.48542e-07 0)
(0.0195767 3.39841e-07 0)
(0.437665 -0.0266882 3.77533e-22)
(0.433263 -0.0269104 9.40395e-38)
(0.426066 -0.0269201 -3.92162e-19)
(0.414921 -0.0266563 -1.97489e-19)
(0.401482 -0.026181 -3.86407e-22)
(0.378711 -0.0248406 -6.24037e-23)
(0.104267 -0.00235442 3.66769e-20)
(0.116789 -0.00304604 -7.20596e-23)
(0.13472 -0.00352355 7.40355e-20)
(0.144958 -0.00377587 -5.87747e-39)
(0.150742 -0.00412687 -3.74137e-20)
(0.164598 -0.00480334 -2.93874e-39)
(-0.213961 -0.000317405 0)
(-0.203306 -0.000487154 0)
(-0.191586 -0.000337504 0)
(-0.182434 -0.000177948 0)
(-1.01787 -0.00382739 0)
(-0.748575 -0.0185775 0)
(-0.385504 -0.010691 0)
(0.0864288 -0.00832036 0)
(0.26756 0.00498188 0)
(0.0338089 0.0122199 0)
(-0.0779802 -0.000112339 0)
(-0.0726674 -0.000120152 0)
(-0.0669963 -0.000124506 0)
(-0.0611657 -0.000127613 0)
(-0.0552673 -0.000125573 0)
(0.606367 -0.597404 2.2401e-18)
(0.620272 -0.633027 2.33191e-18)
(0.745607 -0.779226 0)
(0.60333 -0.635317 -8.44437e-22)
(-0.238912 0.385347 5.59845e-21)
(-1.63929 1.99475 2.01128e-18)
(-1.31711 1.55566 -2.21795e-18)
(-0.550203 0.669427 2.07753e-18)
(0.0188235 3.07334e-07 0)
(0.0188124 1.30567e-07 0)
(0.0188119 3.64675e-08 0)
(0.0188117 -7.47579e-08 0)
(0.0188181 7.76458e-08 0)
(0.0188035 2.30132e-07 0)
(0.018807 -2.86743e-07 0)
(0.0188216 1.04448e-07 0)
(0.0187987 3.65126e-07 0)
(0.0187953 6.48404e-08 0)
(0.0187886 2.37292e-07 0)
(0.0187814 4.79919e-08 0)
(0.0187806 1.57667e-07 0)
(0.0563754 -0.107229 4.75769e-21)
(0.393129 -0.662679 1.23661e-18)
(0.968086 -1.48306 -1.45019e-18)
(0.380626 -0.572945 -3.71532e-20)
(-0.178131 0.402952 -1.21446e-20)
(-0.286682 0.577901 1.54392e-24)
(-0.272389 0.556675 -6.09507e-19)
(-0.149145 0.310178 -1.05093e-22)
(0.216302 -0.00470804 0)
(0.03136 -0.00417135 -2.74468e-37)
(0.0311393 -0.00409141 2.3156e-23)
(0.0309603 -0.00402063 1.18442e-20)
(0.0308167 -0.00395242 1.17812e-20)
(0.0306417 -0.003883 2.29433e-23)
(0.0305301 -0.00381987 1.17274e-20)
(0.0302809 -0.00374085 -1.17119e-20)
(0.0301235 -0.00367642 -1.71916e-37)
(0.0299557 -0.00360918 -5.82953e-21)
(0.0297784 -0.00354285 2.26477e-23)
(0.0296014 -0.00347648 2.25034e-23)
(-0.0142607 0.00222023 6.84167e-19)
(0.037853 -0.0114596 -6.89183e-19)
(0.0844202 -0.0237835 -6.93117e-19)
(0.121321 -0.0337322 -1.39539e-18)
(0.148837 -0.041433 -3.76158e-37)
(0.173623 -0.048671 -7.07509e-19)
(0.191899 -0.053962 1.42582e-18)
(0.196203 -0.0555286 1.43647e-18)
(-0.203127 0.000348187 0)
(-0.214788 0.00015012 0)
(-0.219875 -4.87227e-05 0)
(-0.2194 -0.00018231 0)
(-0.0344075 0.00592126 3.69216e-22)
(-0.132981 0.0134866 -1.83357e-19)
(-0.232347 0.0213277 -3.57915e-19)
(-0.316542 0.0277042 5.83653e-24)
(-0.370847 0.0317594 3.36447e-22)
(-0.396275 0.0338195 2.35099e-38)
(-0.400793 0.0343104 -1.6492e-19)
(0.187209 -0.000105527 0)
(0.192489 -0.00012035 0)
(0.198052 -0.0001439 0)
(0.205469 -0.000204659 0)
(0.214555 -0.000203959 0)
(0.0187724 1.07608e-07 0)
(0.0187695 1.86548e-07 0)
(0.0187596 -7.83075e-08 0)
(0.0187778 1.73751e-08 0)
(0.0187489 6.14425e-07 0)
(0.0187428 -7.70115e-08 0)
(0.0187424 3.2759e-07 0)
(0.018732 -1.19775e-07 0)
(0.0187419 2.25922e-07 0)
(0.0187226 2.49467e-07 0)
(0.0187171 2.97656e-07 0)
(0.0187035 1.39294e-07 0)
(0.040422 -0.010223 -2.9533e-20)
(0.0402867 -0.0100772 -2.24117e-25)
(0.0401916 -0.00994389 2.93054e-20)
(0.0400621 -0.00980353 1.46243e-20)
(0.0399542 -0.00967141 -2.35099e-38)
(0.0398323 -0.00953671 -1.4511e-20)
(0.0397157 -0.00940653 -1.44555e-20)
(0.0395903 -0.00927467 -1.43424e-20)
(0.0394623 -0.0091459 -1.43994e-20)
(0.0330007 -1.21847e-05 0)
(0.0335802 -1.28942e-05 0)
(0.0341918 -1.36605e-05 0)
(0.0348423 -1.45437e-05 0)
(0.0355344 -1.54893e-05 0)
(0.0362724 -1.65552e-05 0)
(0.0370618 -1.77182e-05 0)
(0.0379072 -1.90428e-05 0)
(0.0388182 -2.05477e-05 0)
(0.039801 -2.22308e-05 0)
(0.0408672 -2.41759e-05 0)
(0.0420268 -2.63507e-05 0)
(0.0432939 -2.89536e-05 0)
(0.0446908 -3.19846e-05 0)
(0.0207712 -1.52872e-06 0)
(0.0208467 -1.6064e-06 0)
(0.02092 -1.57606e-06 0)
(0.0209974 -1.74859e-06 0)
(0.021081 -1.75752e-06 0)
(0.0211633 -1.83377e-06 0)
(0.0212511 -1.80558e-06 0)
(0.0213329 -1.83474e-06 0)
(0.0214251 -2.01728e-06 0)
(0.0215191 -2.01436e-06 0)
(0.0216159 -2.17323e-06 0)
(0.0217196 -2.22893e-06 0)
(0.0218247 -2.28812e-06 0)
(0.0219308 -2.29201e-06 0)
(0.018842 -2.96854e-07 0)
(0.0188521 -1.08902e-07 0)
(0.0188599 -2.46588e-07 0)
(0.018873 -2.06681e-07 0)
(0.018887 -4.27884e-07 0)
(0.0189107 -4.60291e-07 0)
(0.0189348 -5.99595e-07 0)
(0.0189634 -4.49857e-07 0)
(0.018979 -3.89597e-07 0)
(0.0190012 -3.71121e-07 0)
(0.0190134 -2.09737e-07 0)
(0.0190268 -4.05781e-07 0)
(0.0190528 -5.04327e-07 0)
(0.267266 -0.04679 -6.29682e-22)
(0.367112 -0.0633969 -1.6903e-23)
(0.445481 -0.0759907 3.3514e-19)
(0.478709 -0.081665 0)
(0.50712 -0.0875398 -3.50418e-19)
(0.536387 -0.0933751 3.57578e-19)
(0.54916 -0.096308 -7.2869e-19)
(0.0196737 -9.65441e-07 0)
(0.0196908 -5.98685e-07 0)
(0.0197519 -1.09977e-06 0)
(0.0197401 7.40428e-07 0)
(0.0197395 -1.1038e-06 0)
(0.0197895 1.4033e-07 0)
(0.0197572 -4.04668e-07 0)
(0.0198069 -4.29383e-07 0)
(0.0198023 -3.87587e-07 0)
(0.0198407 -3.95868e-07 0)
(0.0198289 -1.9961e-07 0)
(0.0193942 4.26615e-07 0)
(0.019387 4.43502e-07 0)
(0.0193551 5.45203e-07 0)
(0.0193437 2.37531e-07 0)
(0.0193288 3.90775e-07 0)
(0.0193159 4.29122e-08 0)
(0.019321 2.72754e-08 0)
(0.019314 3.99159e-08 0)
(0.0193165 9.64963e-08 0)
(0.0193007 4.18298e-07 0)
(0.0192822 4.6302e-07 0)
(0.0192547 6.87724e-07 0)
(0.0192279 4.17795e-07 0)
(-0.444737 0.000365661 0)
(-0.462998 0.000465551 0)
(-0.484404 0.000615653 0)
(-0.504015 0.000358141 0)
(-0.505326 9.45974e-06 0)
(-0.449813 -0.000331676 0)
(-0.432788 -0.000380697 0)
(-0.410961 -0.000455005 0)
(-0.387367 -0.000487112 0)
(-0.363121 -0.000510947 0)
(0.0242974 -0.00176096 -1.02856e-23)
(0.02417 -0.00171953 2.55118e-26)
(0.0239814 -0.00167357 -1.04831e-20)
(0.023821 -0.00163235 -5.24467e-21)
(0.0236751 -0.00159089 2.43986e-26)
(0.023518 -0.0015499 1.01868e-23)
(0.0233355 -0.00150675 -1.01391e-23)
(0.0231795 -0.00146836 1.01392e-23)
(0.0230567 -0.00143001 4.5929e-41)
(0.0228977 -0.00139146 1.00698e-23)
(0.019214 4.86852e-07 0)
(0.0191874 3.60973e-07 0)
(0.0191841 1.53036e-07 0)
(0.0191687 3.74977e-07 0)
(0.0191554 2.98221e-07 0)
(0.0191359 3.36359e-07 0)
(0.0191338 2.65512e-07 0)
(0.0190971 9.47876e-07 0)
(0.0190711 2.14055e-07 0)
(0.0190624 5.37747e-07 0)
(0.0190412 3.79544e-08 0)
(0.0190476 2.11561e-07 0)
(0.198095 -0.0723116 -4.74114e-19)
(0.141216 -0.0497886 -5.19098e-35)
(0.0285755 -0.00542831 -4.26117e-38)
(-0.136029 0.0585357 -1.38479e-21)
(-0.296928 0.119888 7.00078e-19)
(-0.358646 0.142472 -6.83235e-19)
(-0.301438 0.118755 1.01901e-24)
(-0.210075 0.079078 -9.98629e-22)
(-0.624851 0.0931109 2.33218e-35)
(-0.595018 0.0882619 -2.92062e-19)
(-0.504653 0.0730501 -3.76158e-37)
(-0.395445 0.0560841 2.0834e-19)
(-0.246738 0.0350699 -5.73843e-22)
(-0.112158 0.0143091 -3.00299e-19)
(0.0209286 -0.00703276 3.06032e-19)
(0.151845 -0.027974 -9.40395e-38)
(0.337127 -0.0153939 8.51788e-20)
(0.35157 -0.016512 1.69026e-22)
(0.365906 -0.0176123 -8.71579e-20)
(0.379941 -0.0187848 -3.62052e-36)
(0.394095 -0.0199294 8.8878e-20)
(0.405412 -0.0209388 -3.53209e-22)
(0.0261045 -0.00227707 -3.33547e-37)
(0.0258681 -0.00222044 -5.39913e-21)
(0.0257136 -0.00217363 -1.0552e-23)
(0.0255583 -0.00212517 -1.04959e-23)
(0.0254015 -0.00207789 2.09646e-23)
(0.0252145 -0.0020274 -2.72891e-26)
(0.0250231 -0.00197961 -5.36009e-21)
(0.0248846 -0.00193512 1.04148e-23)
(0.0247165 -0.00188943 -2.64027e-40)
(0.0245828 -0.00184646 -1.03366e-23)
(0.0244342 -0.00180309 5.29615e-21)
(0.0240533 -0.0130783 1.33248e-22)
(0.0250211 -0.013345 -6.83702e-20)
(0.0259773 -0.013596 -3.42579e-20)
(0.0268855 -0.0138361 -2.53812e-25)
(0.0277681 -0.0140162 9.18355e-41)
(0.0286388 -0.0141993 -1.3322e-22)
(0.0294744 -0.0143611 1.33224e-22)