/*--------------------------------*- C++ -*----------------------------------*\
| =========                 |                                                 |
| \\      /  F ield         | OpenFOAM: The Open Source CFD Toolbox           |
|  \\    /   O peration     | Version:  2412                                  |
|   \\  /    A nd           | Website:  www.openfoam.com                      |
|    \\/     M anipulation  |                                                 |
\*---------------------------------------------------------------------------*/
FoamFile
{
    version     2.0;
    format      ascii;
    arch        "LSB;label=32;scalar=64";
    class       volScalarField;
    location    "5000";
    object      p;
}
// * * * * * * * * * * * * * * * * * * * * * * * * * * * * * * * * * * * * * //

dimensions      [0 2 -2 0 0 0 0];

internalField   nonuniform List<scalar> 
360650
(
-4.59709
-4.5971
-4.59711
-4.59713
-4.59714
-4.59716
-4.59719
-4.59723
-4.59728
-4.59734
-4.59742
-4.59752
-4.59765
-4.59781
-4.59801
-4.59825
-4.59854
-4.59889
-4.59931
-4.59981
-4.60039
-4.60108
-4.60188
-4.60281
-4.6039
-4.60515
-4.60657
-4.60849
-4.58768
-4.58769
-4.5877
-4.58771
-4.58773
-4.58774
-4.58777
-4.5878
-4.58784
-4.5879
-4.58797
-4.58805
-4.58816
-4.58829
-4.58845
-4.58864
-4.58887
-4.58914
-4.58947
-4.58984
-4.59028
-4.59078
-4.59135
-4.592
-4.59273
-4.59354
-4.59446
-4.59556
-4.57849
-4.5785
-4.57851
-4.57852
-4.57854
-4.57856
-4.57858
-4.57861
-4.57866
-4.57871
-4.57879
-4.57888
-4.57899
-4.57913
-4.5793
-4.57951
-4.57975
-4.58005
-4.5804
-4.58081
-4.58128
-4.58183
-4.58246
-4.58318
-4.58398
-4.58487
-4.58588
-4.58688
-4.56939
-4.5694
-4.56941
-4.56942
-4.56943
-4.56945
-4.56948
-4.56951
-4.56956
-4.56961
-4.56968
-4.56978
-4.56989
-4.57003
-4.57021
-4.57042
-4.57068
-4.57098
-4.57135
-4.57178
-4.57229
-4.57289
-4.57359
-4.57441
-4.57535
-4.57644
-4.57771
-4.57911
-4.56045
-4.56046
-4.56047
-4.56048
-4.5605
-4.56051
-4.56054
-4.56057
-4.56061
-4.56066
-4.56073
-4.56081
-4.56091
-4.56104
-4.56119
-4.56138
-4.5616
-4.56187
-4.56219
-4.56256
-4.56299
-4.56348
-4.56406
-4.56471
-4.56545
-4.56628
-4.56721
-4.56817
-4.5518
-4.55181
-4.55182
-4.55183
-4.55185
-4.55186
-4.55189
-4.55192
-4.55196
-4.55201
-4.55208
-4.55217
-4.55227
-4.55241
-4.55257
-4.55276
-4.553
-4.55328
-4.55361
-4.554
-4.55446
-4.55499
-4.55559
-4.55629
-4.55707
-4.55796
-4.55892
-4.56001
-4.54316
-4.54317
-4.54318
-4.54319
-4.5432
-4.54322
-4.54325
-4.54328
-4.54332
-4.54338
-4.54345
-4.54355
-4.54366
-4.54381
-4.54398
-4.5442
-4.54446
-4.54478
-4.54516
-4.5456
-4.54613
-4.54674
-4.54746
-4.54829
-4.54925
-4.55034
-4.55156
-4.55305
-4.53479
-4.53479
-4.5348
-4.53482
-4.53483
-4.53485
-4.53488
-4.53491
-4.53495
-4.53501
-4.53508
-4.53517
-4.53529
-4.53543
-4.53561
-4.53582
-4.53608
-4.5364
-4.53678
-4.53723
-4.53776
-4.53839
-4.53913
-4.54001
-4.54103
-4.54222
-4.54364
-4.54547
-4.52622
-4.52623
-4.52624
-4.52625
-4.52626
-4.52628
-4.5263
-4.52633
-4.52637
-4.52641
-4.52647
-4.52654
-4.52663
-4.52674
-4.52687
-4.52703
-4.52722
-4.52745
-4.52771
-4.52802
-4.52838
-4.52878
-4.52924
-4.52976
-4.53033
-4.53095
-4.53167
-4.53223
-4.51847
-4.51848
-4.51849
-4.5185
-4.51851
-4.51853
-4.51855
-4.51858
-4.51862
-4.51867
-4.51873
-4.51881
-4.51892
-4.51904
-4.5192
-4.51938
-4.51961
-4.51988
-4.52019
-4.52057
-4.52101
-4.52151
-4.52209
-4.52275
-4.5235
-4.52434
-4.52522
-4.52609
-4.51027
-4.51028
-4.51029
-4.5103
-4.51032
-4.51033
-4.51036
-4.51039
-4.51043
-4.51048
-4.51054
-4.51062
-4.51073
-4.51086
-4.51101
-4.51121
-4.51144
-4.51172
-4.51205
-4.51245
-4.51292
-4.51348
-4.51413
-4.5149
-4.51579
-4.51683
-4.51802
-4.51954
-113.056
-113.053
-113.051
-113.051
-113.054
-113.061
-113.073
-113.092
-113.121
-113.16
-113.212
-113.277
-113.355
-113.447
-113.553
-113.678
-113.822
-113.988
-114.178
-114.393
-114.634
-114.905
-115.204
-115.537
-115.894
-116.3
-116.711
-117.177
-110.96
-110.957
-110.955
-110.955
-110.96
-110.971
-110.99
-111.018
-111.059
-111.114
-111.183
-111.27
-111.376
-111.502
-111.649
-111.822
-112.022
-112.253
-112.517
-112.817
-113.156
-113.535
-113.959
-114.431
-114.952
-115.539
-116.165
-116.871
-108.445
-108.442
-108.44
-108.442
-108.448
-108.462
-108.485
-108.519
-108.566
-108.628
-108.706
-108.803
-108.92
-109.06
-109.225
-109.418
-109.641
-109.896
-110.187
-110.514
-110.881
-111.288
-111.742
-112.246
-112.806
-113.428
-114.104
-114.906
-105.617
-105.615
-105.614
-105.615
-105.622
-105.636
-105.659
-105.692
-105.739
-105.8
-105.877
-105.973
-106.089
-106.225
-106.383
-106.565
-106.772
-107.006
-107.27
-107.565
-107.889
-108.243
-108.625
-109.037
-109.478
-109.952
-110.441
-111.007
-102.835
-102.835
-102.835
-102.838
-102.847
-102.862
-102.887
-102.923
-102.971
-103.033
-103.11
-103.204
-103.317
-103.45
-103.606
-103.784
-103.983
-104.202
-104.443
-104.707
-104.997
-105.313
-105.655
-106.022
-106.413
-106.831
-107.232
-107.7
-100.342
-100.344
-100.347
-100.352
-100.364
-100.385
-100.417
-100.462
-100.521
-100.593
-100.681
-100.785
-100.904
-101.037
-101.185
-101.351
-101.535
-101.74
-101.966
-102.213
-102.481
-102.772
-103.08
-103.401
-103.732
-104.072
-104.376
-104.727
-144.534
-144.534
-144.534
-144.535
-144.535
-144.535
-144.535
-144.535
-144.535
-144.535
-144.536
-144.536
-144.536
-144.537
-144.537
-144.538
-144.539
-144.54
-144.541
-144.543
-144.545
-144.547
-144.55
-144.553
-144.556
-144.56
-144.565
-144.569
-145.448
-145.448
-145.449
-145.449
-145.449
-145.449
-145.449
-145.45
-145.45
-145.45
-145.45
-145.451
-145.451
-145.451
-145.452
-145.453
-145.454
-145.455
-145.457
-145.459
-145.461
-145.464
-145.468
-145.472
-145.477
-145.482
-145.489
-145.497
-146.399
-146.399
-146.399
-146.4
-146.4
-146.4
-146.4
-146.4
-146.401
-146.401
-146.401
-146.402
-146.402
-146.403
-146.403
-146.404
-146.405
-146.406
-146.407
-146.409
-146.411
-146.414
-146.417
-146.421
-146.425
-146.43
-146.435
-146.445
-147.379
-147.379
-147.38
-147.38
-147.38
-147.38
-147.381
-147.381
-147.381
-147.381
-147.382
-147.382
-147.383
-147.383
-147.384
-147.384
-147.385
-147.386
-147.387
-147.388
-147.389
-147.391
-147.393
-147.396
-147.4
-147.404
-147.408
-147.415
-148.383
-148.383
-148.384
-148.384
-148.384
-148.384
-148.384
-148.385
-148.385
-148.385
-148.385
-148.386
-148.386
-148.386
-148.387
-148.387
-148.388
-148.388
-148.389
-148.389
-148.39
-148.391
-148.392
-148.394
-148.396
-148.398
-148.4
-148.403
-123.055
-123.062
-123.073
-123.09
-123.113
-123.141
-123.176
-123.219
-123.272
-123.337
-123.413
-123.501
-123.597
-123.697
-123.795
-123.883
-123.959
-124.024
-124.076
-124.118
-124.15
-124.175
-124.195
-124.212
-124.23
-124.232
-124.225
-124.275
-127.382
-127.386
-127.397
-127.42
-127.457
-127.514
-127.586
-127.672
-127.768
-127.871
-127.973
-128.069
-128.154
-128.227
-128.285
-128.329
-128.347
-128.339
-128.322
-128.295
-128.236
-128.128
-127.982
-127.807
-127.606
-127.366
-127.076
-126.805
-129
-129.009
-129.042
-129.109
-129.209
-129.337
-129.489
-129.662
-129.853
-130.059
-130.275
-130.494
-130.71
-130.909
-131.065
-131.139
-131.107
-130.974
-130.802
-130.632
-130.446
-130.222
-129.967
-129.669
-129.315
-128.942
-128.594
-128.237
-128.139
-128.125
-128.121
-128.139
-128.186
-128.266
-128.377
-128.509
-128.657
-128.824
-129.01
-129.204
-129.392
-129.555
-129.679
-129.75
-129.77
-129.763
-129.737
-129.672
-129.515
-129.234
-128.875
-128.504
-128.136
-127.772
-127.41
-127.017
-125.241
-125.237
-125.23
-125.228
-125.238
-125.266
-125.317
-125.389
-125.477
-125.576
-125.684
-125.802
-125.929
-126.056
-126.174
-126.28
-126.369
-126.434
-126.465
-126.461
-126.411
-126.289
-126.088
-125.855
-125.64
-125.47
-125.333
-125.167
-124.333
-124.335
-124.336
-124.339
-124.343
-124.349
-124.353
-124.352
-124.335
-124.291
-124.215
-124.11
-123.984
-123.846
-123.703
-123.561
-123.428
-123.313
-123.219
-123.154
-123.135
-123.193
-123.345
-123.562
-123.795
-123.994
-124.135
-124.205
-117.66
-117.661
-117.662
-117.662
-117.662
-117.662
-117.662
-117.662
-117.661
-117.661
-117.661
-117.66
-117.659
-117.657
-117.654
-117.649
-117.642
-117.632
-117.618
-117.598
-117.571
-117.537
-117.498
-117.456
-117.41
-117.365
-117.308
-117.262
-118.124
-118.126
-118.127
-118.128
-118.128
-118.129
-118.128
-118.128
-118.127
-118.125
-118.122
-118.117
-118.11
-118.1
-118.087
-118.069
-118.045
-118.017
-117.985
-117.949
-117.907
-117.861
-117.808
-117.747
-117.679
-117.605
-117.514
-117.438
-118.871
-118.872
-118.874
-118.875
-118.877
-118.877
-118.877
-118.876
-118.872
-118.866
-118.857
-118.842
-118.823
-118.797
-118.764
-118.724
-118.677
-118.621
-118.555
-118.481
-118.396
-118.303
-118.2
-118.089
-117.969
-117.844
-117.702
-117.576
-119.758
-119.759
-119.761
-119.764
-119.766
-119.768
-119.769
-119.768
-119.764
-119.755
-119.741
-119.719
-119.689
-119.647
-119.593
-119.525
-119.444
-119.349
-119.239
-119.116
-118.979
-118.83
-118.669
-118.497
-118.315
-118.122
-117.917
-117.721
-120.359
-120.36
-120.361
-120.364
-120.368
-120.372
-120.376
-120.378
-120.376
-120.367
-120.351
-120.328
-120.295
-120.249
-120.186
-120.104
-120.003
-119.882
-119.739
-119.577
-119.396
-119.197
-118.983
-118.755
-118.514
-118.26
-117.997
-117.724
-120.372
-120.373
-120.378
-120.386
-120.397
-120.41
-120.423
-120.433
-120.434
-120.424
-120.407
-120.386
-120.359
-120.318
-120.26
-120.181
-120.08
-119.954
-119.806
-119.634
-119.44
-119.226
-118.994
-118.743
-118.478
-118.197
-117.903
-117.59
-138.227
-138.227
-138.227
-138.227
-138.227
-138.226
-138.225
-138.223
-138.22
-138.217
-138.213
-138.208
-138.202
-138.196
-138.188
-138.178
-138.167
-138.155
-138.141
-138.124
-138.106
-138.085
-138.062
-138.036
-138.007
-137.974
-137.939
-137.895
-138.485
-138.485
-138.486
-138.486
-138.486
-138.485
-138.484
-138.482
-138.48
-138.477
-138.473
-138.469
-138.463
-138.457
-138.449
-138.439
-138.428
-138.415
-138.4
-138.382
-138.363
-138.341
-138.316
-138.288
-138.257
-138.222
-138.185
-138.137
-138.813
-138.814
-138.815
-138.815
-138.814
-138.814
-138.813
-138.811
-138.809
-138.806
-138.802
-138.797
-138.791
-138.784
-138.775
-138.764
-138.751
-138.736
-138.719
-138.7
-138.678
-138.653
-138.626
-138.595
-138.562
-138.525
-138.487
-138.44
-139.234
-139.234
-139.235
-139.235
-139.235
-139.234
-139.233
-139.231
-139.229
-139.225
-139.221
-139.215
-139.208
-139.2
-139.189
-139.176
-139.161
-139.143
-139.122
-139.099
-139.073
-139.043
-139.01
-138.973
-138.934
-138.888
-138.842
-138.784
-139.754
-139.755
-139.755
-139.755
-139.755
-139.754
-139.753
-139.752
-139.749
-139.746
-139.741
-139.735
-139.727
-139.717
-139.705
-139.69
-139.673
-139.653
-139.63
-139.604
-139.575
-139.543
-139.507
-139.468
-139.426
-139.378
-139.331
-139.268
-140.397
-140.398
-140.398
-140.398
-140.398
-140.397
-140.396
-140.394
-140.391
-140.386
-140.38
-140.373
-140.362
-140.35
-140.334
-140.315
-140.293
-140.268
-140.24
-140.208
-140.173
-140.135
-140.094
-140.049
-140.002
-139.949
-139.898
-139.835
-141.192
-141.193
-141.194
-141.194
-141.194
-141.193
-141.191
-141.188
-141.183
-141.177
-141.168
-141.156
-141.141
-141.122
-141.099
-141.073
-141.042
-141.007
-140.968
-140.926
-140.88
-140.83
-140.777
-140.72
-140.661
-140.596
-140.533
-140.456
-4.34369
-4.34369
-4.34369
-4.34369
-4.34369
-4.34369
-4.3437
-4.34371
-4.34373
-4.34375
-4.34379
-4.34383
-4.34389
-4.34396
-4.34405
-4.34417
-4.34431
-4.34449
-4.3447
-4.34496
-4.34526
-4.34562
-4.34605
-4.34654
-4.34712
-4.34777
-4.34843
-4.34935
-4.34191
-4.34191
-4.34191
-4.34191
-4.34191
-4.34192
-4.34192
-4.34193
-4.34195
-4.34197
-4.342
-4.34204
-4.3421
-4.34216
-4.34225
-4.34236
-4.3425
-4.34266
-4.34286
-4.34311
-4.34341
-4.34376
-4.34419
-4.3447
-4.34532
-4.34604
-4.34694
-4.34829
-4.34057
-4.34057
-4.34057
-4.34057
-4.34057
-4.34057
-4.34057
-4.34058
-4.34059
-4.3406
-4.34062
-4.34064
-4.34067
-4.34071
-4.34076
-4.34081
-4.34088
-4.34096
-4.34106
-4.34116
-4.34129
-4.34143
-4.34158
-4.34175
-4.34193
-4.34215
-4.34245
-4.34255
-4.33937
-4.33937
-4.33936
-4.33936
-4.33936
-4.33936
-4.33936
-4.33936
-4.33937
-4.33938
-4.3394
-4.33942
-4.33945
-4.33949
-4.33955
-4.33961
-4.33969
-4.33979
-4.3399
-4.34004
-4.34021
-4.3404
-4.34062
-4.34087
-4.34116
-4.34148
-4.34182
-4.34218
-4.33816
-4.33815
-4.33814
-4.33814
-4.33813
-4.33813
-4.33813
-4.33812
-4.33813
-4.33813
-4.33814
-4.33815
-4.33817
-4.33819
-4.33822
-4.33826
-4.33831
-4.33837
-4.33844
-4.33853
-4.33864
-4.33877
-4.33893
-4.33911
-4.33932
-4.33957
-4.33986
-4.34018
-4.33722
-4.33722
-4.33721
-4.3372
-4.33719
-4.33718
-4.33718
-4.33717
-4.33717
-4.33717
-4.33717
-4.33718
-4.33719
-4.3372
-4.33722
-4.33725
-4.33729
-4.33733
-4.33739
-4.33745
-4.33754
-4.33763
-4.33774
-4.33787
-4.33802
-4.33818
-4.33835
-4.3385
-4.33567
-4.33566
-4.33565
-4.33564
-4.33563
-4.33563
-4.33562
-4.33562
-4.33561
-4.33561
-4.33561
-4.33562
-4.33563
-4.33564
-4.33566
-4.33569
-4.33573
-4.33579
-4.33586
-4.33594
-4.33604
-4.33617
-4.33633
-4.33651
-4.33673
-4.33699
-4.33729
-4.33763
-4.33413
-4.33412
-4.33412
-4.33411
-4.3341
-4.33409
-4.33409
-4.33409
-4.33408
-4.33408
-4.33409
-4.33409
-4.3341
-4.33412
-4.33414
-4.33418
-4.33422
-4.33427
-4.33434
-4.33442
-4.33453
-4.33466
-4.33481
-4.335
-4.33521
-4.33547
-4.33576
-4.33605
-4.33225
-4.33225
-4.33224
-4.33223
-4.33223
-4.33222
-4.33221
-4.33221
-4.33221
-4.33221
-4.33221
-4.33221
-4.33222
-4.33223
-4.33225
-4.33228
-4.33232
-4.33237
-4.33243
-4.33251
-4.33261
-4.33274
-4.33289
-4.33306
-4.33326
-4.33353
-4.33383
-4.33412
-4.33009
-4.33009
-4.33008
-4.33007
-4.33007
-4.33006
-4.33006
-4.33005
-4.33005
-4.33005
-4.33006
-4.33007
-4.33008
-4.3301
-4.33012
-4.33015
-4.3302
-4.33025
-4.33032
-4.33041
-4.33051
-4.33064
-4.33077
-4.33093
-4.33116
-4.3315
-4.33187
-4.33209
-4.32802
-4.32801
-4.328
-4.328
-4.32799
-4.32799
-4.32799
-4.32799
-4.32799
-4.328
-4.32801
-4.32803
-4.32805
-4.32809
-4.32814
-4.3282
-4.32828
-4.32839
-4.32852
-4.32869
-4.3289
-4.32916
-4.32947
-4.32992
-4.33063
-4.33155
-4.33268
-4.33386
-168.17
-168.171
-168.171
-168.171
-168.171
-168.172
-168.172
-168.172
-168.172
-168.173
-168.173
-168.173
-168.174
-168.175
-168.176
-168.177
-168.178
-168.18
-168.181
-168.183
-168.186
-168.189
-168.192
-168.196
-168.2
-168.206
-168.213
-168.215
-169.596
-169.596
-169.597
-169.597
-169.597
-169.597
-169.598
-169.598
-169.598
-169.599
-169.599
-169.6
-169.6
-169.601
-169.602
-169.603
-169.604
-169.606
-169.608
-169.61
-169.612
-169.615
-169.618
-169.622
-169.626
-169.631
-169.636
-169.64
-171.049
-171.049
-171.05
-171.05
-171.051
-171.051
-171.051
-171.052
-171.053
-171.053
-171.054
-171.055
-171.056
-171.058
-171.059
-171.061
-171.063
-171.065
-171.068
-171.07
-171.074
-171.077
-171.082
-171.086
-171.092
-171.098
-171.105
-171.115
-172.529
-172.529
-172.529
-172.53
-172.53
-172.53
-172.531
-172.532
-172.533
-172.534
-172.535
-172.536
-172.538
-172.54
-172.542
-172.544
-172.547
-172.551
-172.554
-172.559
-172.563
-172.569
-172.575
-172.582
-172.589
-172.598
-172.607
-172.619
-174.01
-174.01
-174.011
-174.011
-174.011
-174.012
-174.012
-174.013
-174.013
-174.014
-174.015
-174.016
-174.017
-174.019
-174.021
-174.022
-174.025
-174.027
-174.03
-174.034
-174.037
-174.042
-174.046
-174.052
-174.057
-174.064
-174.07
-174.077
-7.14931
-7.14925
-7.14919
-7.14914
-7.14912
-7.14912
-7.14918
-7.1493
-7.14953
-7.1499
-7.15047
-7.15131
-7.15248
-7.1541
-7.15628
-7.15916
-7.16289
-7.16764
-7.17361
-7.18099
-7.18997
-7.20077
-7.21358
-7.2286
-7.246
-7.26591
-7.28877
-7.31356
-7.16714
-7.16708
-7.16702
-7.16698
-7.16696
-7.16697
-7.16703
-7.16717
-7.16742
-7.16782
-7.16842
-7.16929
-7.17052
-7.17218
-7.17441
-7.17734
-7.18111
-7.18588
-7.19184
-7.19915
-7.20802
-7.21863
-7.23115
-7.24575
-7.26259
-7.28182
-7.30356
-7.32763
-7.18505
-7.18499
-7.18493
-7.18489
-7.18487
-7.18489
-7.18497
-7.18513
-7.1854
-7.18583
-7.18647
-7.18739
-7.18867
-7.1904
-7.1927
-7.1957
-7.19953
-7.20437
-7.21036
-7.21769
-7.22654
-7.23706
-7.24942
-7.26377
-7.28027
-7.29898
-7.32014
-7.3438
-7.20168
-7.20163
-7.20157
-7.20153
-7.20152
-7.20154
-7.20163
-7.20181
-7.2021
-7.20256
-7.20324
-7.2042
-7.20553
-7.20733
-7.20969
-7.21276
-7.21667
-7.22157
-7.22763
-7.235
-7.24386
-7.25437
-7.26668
-7.28096
-7.29733
-7.31591
-7.33699
-7.35984
-7.21792
-7.21786
-7.21781
-7.21777
-7.21777
-7.2178
-7.2179
-7.21809
-7.2184
-7.21889
-7.21959
-7.22059
-7.22196
-7.2238
-7.2262
-7.22931
-7.23324
-7.23815
-7.24419
-7.25151
-7.26026
-7.27062
-7.28271
-7.29668
-7.31267
-7.33079
-7.3511
-7.37379
-7.23292
-7.23286
-7.23281
-7.23278
-7.23278
-7.23282
-7.23293
-7.23313
-7.23346
-7.23397
-7.2347
-7.23573
-7.23714
-7.23901
-7.24145
-7.24458
-7.24853
-7.25343
-7.25944
-7.26669
-7.27534
-7.28552
-7.29737
-7.31102
-7.3266
-7.34416
-7.36394
-7.38597
-7.24711
-7.24705
-7.247
-7.24697
-7.24698
-7.24703
-7.24714
-7.24736
-7.24771
-7.24823
-7.24899
-7.25004
-7.25147
-7.25337
-7.25583
-7.25897
-7.26292
-7.26779
-7.27374
-7.2809
-7.28941
-7.29939
-7.31098
-7.32429
-7.33944
-7.35649
-7.37573
-7.39661
-7.26006
-7.26001
-7.25996
-7.25994
-7.25995
-7.26
-7.26013
-7.26036
-7.26072
-7.26127
-7.26205
-7.26313
-7.26458
-7.26651
-7.26899
-7.27215
-7.2761
-7.28096
-7.28688
-7.29396
-7.30236
-7.31218
-7.32356
-7.33659
-7.35139
-7.36804
-7.38669
-7.4069
-7.27192
-7.27187
-7.27182
-7.2718
-7.27181
-7.27187
-7.27201
-7.27225
-7.27263
-7.27319
-7.274
-7.2751
-7.27658
-7.27853
-7.28103
-7.28421
-7.28816
-7.29301
-7.29889
-7.30592
-7.31422
-7.32392
-7.33512
-7.34794
-7.36248
-7.37882
-7.39705
-7.41724
-126.812
-126.812
-126.811
-126.811
-126.811
-126.811
-126.813
-126.815
-126.82
-126.826
-126.834
-126.845
-126.859
-126.875
-126.894
-126.916
-126.941
-126.968
-126.996
-127.026
-127.057
-127.089
-127.123
-127.16
-127.2
-127.243
-127.295
-127.347
-126.338
-126.338
-126.338
-126.338
-126.338
-126.339
-126.34
-126.341
-126.344
-126.347
-126.352
-126.358
-126.366
-126.375
-126.385
-126.397
-126.411
-126.425
-126.44
-126.456
-126.474
-126.492
-126.511
-126.532
-126.554
-126.58
-126.606
-126.63
-4.32509
-4.32509
-4.32508
-4.32508
-4.32507
-4.32507
-4.32507
-4.32506
-4.32506
-4.32505
-4.32505
-4.32505
-4.32505
-4.32505
-4.32505
-4.32505
-4.32506
-4.32507
-4.32508
-4.32509
-4.3251
-4.32511
-4.32513
-4.32515
-4.32514
-4.32514
-4.32514
-4.3252
-4.32291
-4.32291
-4.3229
-4.3229
-4.32289
-4.32289
-4.32288
-4.32288
-4.32288
-4.32288
-4.32288
-4.32288
-4.32289
-4.32289
-4.3229
-4.32292
-4.32294
-4.32296
-4.32299
-4.32302
-4.32306
-4.32311
-4.32316
-4.3232
-4.32324
-4.32325
-4.32324
-4.32314
-4.31969
-4.31968
-4.31968
-4.31967
-4.31967
-4.31967
-4.31966
-4.31966
-4.31966
-4.31966
-4.31966
-4.31966
-4.31967
-4.31968
-4.3197
-4.31972
-4.31974
-4.31978
-4.31983
-4.31988
-4.31996
-4.32005
-4.32016
-4.3203
-4.32047
-4.32068
-4.32095
-4.32128
-4.31711
-4.3171
-4.3171
-4.31709
-4.31709
-4.31708
-4.31708
-4.31707
-4.31707
-4.31707
-4.31707
-4.31706
-4.31706
-4.31707
-4.31707
-4.31707
-4.31708
-4.31709
-4.31711
-4.31713
-4.31715
-4.31718
-4.31722
-4.31727
-4.31733
-4.31739
-4.31751
-4.31754
-4.31378
-4.31378
-4.31377
-4.31377
-4.31377
-4.31376
-4.31376
-4.31376
-4.31376
-4.31376
-4.31376
-4.31376
-4.31377
-4.31378
-4.31379
-4.31381
-4.31383
-4.31386
-4.3139
-4.31394
-4.31399
-4.31405
-4.31411
-4.31418
-4.31425
-4.31432
-4.31445
-4.31447
-4.31094
-4.31094
-4.31093
-4.31093
-4.31093
-4.31092
-4.31092
-4.31092
-4.31093
-4.31093
-4.31094
-4.31095
-4.31097
-4.31099
-4.31102
-4.31106
-4.31111
-4.31118
-4.31127
-4.31137
-4.31151
-4.31168
-4.31189
-4.31215
-4.31247
-4.3129
-4.31358
-4.31433
-4.30717
-4.30717
-4.30717
-4.30716
-4.30716
-4.30716
-4.30716
-4.30715
-4.30715
-4.30715
-4.30714
-4.30714
-4.30714
-4.30714
-4.30714
-4.30714
-4.30714
-4.30714
-4.30714
-4.30713
-4.30713
-4.30713
-4.30712
-4.30711
-4.3071
-4.30708
-4.307
-4.30696
-4.30416
-4.30416
-4.30415
-4.30415
-4.30415
-4.30415
-4.30415
-4.30415
-4.30415
-4.30415
-4.30416
-4.30416
-4.30418
-4.30419
-4.30421
-4.30424
-4.30427
-4.30432
-4.30437
-4.30443
-4.30451
-4.3046
-4.30471
-4.30483
-4.30496
-4.30509
-4.30522
-4.30528
-4.3002
-4.3002
-4.3002
-4.3002
-4.3002
-4.30019
-4.30019
-4.30019
-4.30019
-4.3002
-4.3002
-4.30021
-4.30022
-4.30023
-4.30025
-4.30028
-4.30031
-4.30036
-4.30042
-4.30049
-4.30059
-4.30071
-4.30086
-4.30104
-4.30129
-4.3016
-4.302
-4.30258
-4.29663
-4.29663
-4.29663
-4.29662
-4.29662
-4.29662
-4.29661
-4.29661
-4.29661
-4.2966
-4.2966
-4.29659
-4.29658
-4.29657
-4.29656
-4.29654
-4.29652
-4.2965
-4.29646
-4.29642
-4.29637
-4.29631
-4.29623
-4.29612
-4.29598
-4.2958
-4.29562
-4.29528
-4.29287
-4.29287
-4.29287
-4.29286
-4.29286
-4.29286
-4.29286
-4.29286
-4.29286
-4.29286
-4.29286
-4.29287
-4.29288
-4.29289
-4.2929
-4.29292
-4.29294
-4.29297
-4.29301
-4.29305
-4.2931
-4.29316
-4.29323
-4.29332
-4.29341
-4.29351
-4.29362
-4.29363
-123.557
-123.558
-123.558
-123.559
-123.559
-123.56
-123.56
-123.561
-123.561
-123.561
-123.561
-123.561
-123.562
-123.562
-123.562
-123.563
-123.564
-123.565
-123.566
-123.567
-123.569
-123.572
-123.574
-123.577
-123.581
-123.586
-123.591
-123.595
-123.681
-123.681
-123.682
-123.682
-123.683
-123.683
-123.684
-123.684
-123.684
-123.684
-123.685
-123.685
-123.685
-123.685
-123.686
-123.686
-123.687
-123.689
-123.69
-123.692
-123.695
-123.698
-123.701
-123.706
-123.711
-123.717
-123.723
-123.73
-123.784
-123.784
-123.785
-123.785
-123.786
-123.786
-123.786
-123.787
-123.787
-123.787
-123.787
-123.788
-123.788
-123.789
-123.789
-123.791
-123.792
-123.794
-123.796
-123.799
-123.803
-123.807
-123.812
-123.818
-123.824
-123.832
-123.841
-123.852
-122.809
-122.809
-122.81
-122.81
-122.81
-122.81
-122.811
-122.812
-122.813
-122.814
-122.815
-122.817
-122.819
-122.82
-122.822
-122.823
-122.824
-122.825
-122.824
-122.822
-122.819
-122.814
-122.807
-122.797
-122.783
-122.765
-122.741
-122.707
-122.782
-122.783
-122.784
-122.784
-122.785
-122.786
-122.787
-122.789
-122.79
-122.792
-122.793
-122.795
-122.796
-122.798
-122.799
-122.801
-122.802
-122.803
-122.803
-122.801
-122.798
-122.794
-122.788
-122.781
-122.773
-122.763
-122.752
-122.731
-134.398
-134.399
-134.399
-134.4
-134.4
-134.401
-134.402
-134.403
-134.404
-134.406
-134.408
-134.41
-134.412
-134.415
-134.418
-134.421
-134.424
-134.428
-134.432
-134.436
-134.44
-134.445
-134.451
-134.457
-134.465
-134.473
-134.481
-134.49
-134.894
-134.894
-134.895
-134.895
-134.895
-134.896
-134.896
-134.897
-134.898
-134.899
-134.901
-134.903
-134.905
-134.908
-134.911
-134.915
-134.919
-134.923
-134.927
-134.931
-134.936
-134.941
-134.946
-134.952
-134.959
-134.967
-134.974
-134.982
-135.42
-135.42
-135.421
-135.421
-135.421
-135.421
-135.421
-135.422
-135.422
-135.422
-135.423
-135.424
-135.426
-135.428
-135.43
-135.433
-135.436
-135.439
-135.443
-135.447
-135.451
-135.455
-135.46
-135.465
-135.471
-135.477
-135.484
-135.492
-135.963
-135.963
-135.964
-135.964
-135.964
-135.964
-135.964
-135.964
-135.964
-135.964
-135.965
-135.965
-135.966
-135.966
-135.968
-135.969
-135.971
-135.974
-135.976
-135.979
-135.982
-135.985
-135.989
-135.993
-135.997
-136.002
-136.01
-136.023
-136.519
-136.52
-136.52
-136.52
-136.52
-136.521
-136.521
-136.521
-136.521
-136.521
-136.521
-136.522
-136.523
-136.524
-136.525
-136.527
-136.53
-136.533
-136.536
-136.54
-136.543
-136.548
-136.552
-136.557
-136.562
-136.568
-136.577
-136.583
-126.01
-126.011
-126.011
-126.011
-126.011
-126.011
-126.011
-126.01
-126.009
-126.008
-126.006
-126.003
-126
-125.997
-125.993
-125.989
-125.986
-125.983
-125.98
-125.978
-125.976
-125.974
-125.972
-125.97
-125.969
-125.964
-125.96
-125.974
-126.173
-126.173
-126.172
-126.171
-126.172
-126.176
-126.183
-126.194
-126.207
-126.222
-126.241
-126.264
-126.294
-126.331
-126.375
-126.422
-126.468
-126.515
-126.568
-126.626
-126.69
-126.763
-126.841
-126.925
-127.004
-127.089
-127.167
-127.24
-125.832
-125.832
-125.832
-125.832
-125.832
-125.832
-125.831
-125.83
-125.828
-125.825
-125.822
-125.818
-125.812
-125.807
-125.801
-125.796
-125.79
-125.786
-125.782
-125.779
-125.777
-125.775
-125.774
-125.772
-125.771
-125.766
-125.769
-125.763
-125.602
-125.602
-125.602
-125.602
-125.602
-125.602
-125.601
-125.6
-125.598
-125.595
-125.592
-125.587
-125.583
-125.578
-125.574
-125.57
-125.568
-125.568
-125.569
-125.573
-125.578
-125.587
-125.598
-125.612
-125.631
-125.654
-125.687
-125.701
-209.802
-209.802
-209.802
-209.803
-209.805
-209.808
-209.813
-209.819
-209.826
-209.835
-209.846
-209.858
-209.873
-209.889
-209.909
-209.93
-209.955
-209.982
-210.013
-210.047
-210.086
-210.129
-210.176
-210.229
-210.287
-210.351
-210.423
-210.497
-210.48
-210.48
-210.48
-210.481
-210.483
-210.487
-210.491
-210.498
-210.506
-210.516
-210.527
-210.541
-210.557
-210.576
-210.596
-210.62
-210.647
-210.677
-210.711
-210.749
-210.791
-210.838
-210.89
-210.949
-211.013
-211.085
-211.165
-211.248
-210.984
-210.984
-210.984
-210.985
-210.987
-210.991
-210.996
-211.003
-211.012
-211.023
-211.036
-211.051
-211.068
-211.088
-211.111
-211.137
-211.166
-211.199
-211.235
-211.277
-211.323
-211.374
-211.431
-211.495
-211.565
-211.642
-211.729
-211.822
-211.294
-211.294
-211.294
-211.296
-211.299
-211.303
-211.31
-211.318
-211.329
-211.341
-211.357
-211.374
-211.395
-211.417
-211.443
-211.473
-211.505
-211.542
-211.583
-211.628
-211.678
-211.734
-211.796
-211.865
-211.943
-212.029
-212.123
-212.225
-128.068
-128.069
-128.069
-128.07
-128.072
-128.072
-128.072
-128.07
-128.065
-128.058
-128.047
-128.033
-128.016
-127.994
-127.968
-127.938
-127.904
-127.867
-127.829
-127.792
-127.758
-127.725
-127.695
-127.667
-127.64
-127.617
-127.592
-127.585
-126.539
-126.539
-126.539
-126.539
-126.539
-126.539
-126.54
-126.542
-126.545
-126.55
-126.556
-126.564
-126.574
-126.587
-126.601
-126.617
-126.635
-126.655
-126.675
-126.696
-126.717
-126.74
-126.763
-126.787
-126.813
-126.84
-126.87
-126.892
-126.366
-126.365
-126.364
-126.362
-126.362
-126.364
-126.368
-126.377
-126.39
-126.41
-126.437
-126.471
-126.513
-126.565
-126.625
-126.693
-126.768
-126.852
-126.944
-127.046
-127.158
-127.279
-127.408
-127.543
-127.68
-127.818
-127.958
-128.085
-126.163
-126.163
-126.163
-126.164
-126.164
-126.164
-126.164
-126.165
-126.165
-126.166
-126.168
-126.17
-126.172
-126.176
-126.179
-126.184
-126.189
-126.195
-126.201
-126.208
-126.216
-126.224
-126.233
-126.243
-126.254
-126.266
-126.275
-126.296
-128.139
-128.138
-128.138
-128.138
-128.139
-128.139
-128.138
-128.136
-128.134
-128.13
-128.124
-128.117
-128.106
-128.092
-128.074
-128.055
-128.036
-128.02
-128.005
-127.992
-127.982
-127.974
-127.968
-127.964
-127.961
-127.966
-127.978
-127.993
-127.85
-127.85
-127.849
-127.849
-127.849
-127.849
-127.849
-127.849
-127.849
-127.848
-127.846
-127.844
-127.842
-127.84
-127.838
-127.838
-127.838
-127.838
-127.839
-127.842
-127.846
-127.852
-127.863
-127.883
-127.908
-127.934
-127.96
-127.988
-596.316
-596.421
-596.484
-596.263
-595.277
-593.083
-589.56
-584.848
-578.965
-572.105
-564.833
-557.336
-549.722
-541.902
-533.862
-525.631
-517.277
-508.897
-500.509
-492.109
-483.59
-475.092
-467.324
-460.274
-453.218
-445.81
-438.03
-430.436
-668.705
-668.56
-668.094
-666.666
-663.569
-658.339
-651.457
-643.736
-635.373
-626.214
-616.476
-606.538
-596.608
-586.719
-576.83
-566.902
-556.901
-546.865
-536.824
-526.844
-516.975
-507.141
-497.29
-487.48
-477.933
-468.24
-458.618
-449.021
-654.871
-654.802
-654.354
-653.043
-650.548
-647.037
-642.86
-638.029
-632.261
-625.35
-617.536
-609.159
-600.47
-591.607
-582.656
-573.63
-564.483
-555.137
-545.575
-535.811
-525.879
-515.835
-505.739
-495.55
-485.265
-474.778
-464.361
-453.484
-704.873
-704.599
-703.754
-701.458
-696.969
-690.191
-682.041
-673.702
-665.255
-656.294
-646.885
-637.228
-627.43
-617.539
-607.567
-597.493
-587.291
-576.961
-566.526
-556.022
-545.476
-534.875
-524.192
-513.395
-502.525
-491.522
-480.56
-469.464
-695.594
-695.482
-694.938
-693.705
-691.468
-687.815
-682.361
-675.125
-666.575
-657.307
-647.764
-638.094
-628.288
-618.42
-608.456
-598.369
-588.178
-577.87
-567.413
-556.792
-546.015
-535.108
-524.112
-513.024
-501.887
-490.642
-479.402
-467.987
-705.967
-705.791
-704.984
-703.015
-699.558
-694.535
-688.096
-680.475
-672.082
-663.269
-654.051
-644.558
-634.965
-625.253
-615.408
-605.385
-595.133
-584.676
-574.07
-563.341
-552.51
-541.574
-530.515
-519.321
-508.017
-496.554
-485.119
-473.455
-711.276
-710.939
-709.855
-707.475
-703.518
-697.929
-690.852
-682.65
-673.666
-664.16
-654.408
-644.534
-634.548
-624.469
-614.262
-603.892
-593.358
-582.664
-571.809
-560.804
-549.657
-538.377
-526.975
-515.459
-503.83
-492.068
-480.267
-468.343
-704.877
-704.593
-703.43
-700.979
-697.079
-691.585
-684.642
-676.613
-667.848
-658.639
-649.158
-639.532
-629.82
-620.016
-610.081
-599.971
-589.662
-579.156
-568.484
-557.672
-546.741
-535.691
-524.519
-513.222
-501.799
-490.248
-478.722
-466.877
-701.253
-700.806
-699.372
-696.68
-692.59
-686.928
-679.809
-671.579
-662.598
-653.157
-643.489
-633.718
-623.867
-613.927
-603.846
-593.58
-583.11
-572.441
-561.59
-550.573
-539.401
-528.079
-516.616
-505.015
-493.263
-481.403
-469.458
-457.382
-127.155
-127.154
-127.154
-127.154
-127.154
-127.154
-127.156
-127.159
-127.163
-127.169
-127.177
-127.188
-127.2
-127.216
-127.235
-127.256
-127.281
-127.307
-127.336
-127.367
-127.401
-127.439
-127.479
-127.521
-127.569
-127.626
-127.692
-127.779
-125.325
-125.324
-125.324
-125.324
-125.324
-125.323
-125.323
-125.321
-125.319
-125.317
-125.313
-125.309
-125.305
-125.301
-125.297
-125.295
-125.294
-125.294
-125.297
-125.301
-125.308
-125.317
-125.328
-125.343
-125.362
-125.382
-125.41
-125.439
-127.541
-127.54
-127.54
-127.54
-127.54
-127.54
-127.541
-127.543
-127.545
-127.548
-127.552
-127.557
-127.563
-127.571
-127.579
-127.587
-127.599
-127.613
-127.631
-127.653
-127.678
-127.707
-127.744
-127.795
-127.855
-127.916
-127.981
-128.056
-126.939
-126.94
-126.94
-126.941
-126.941
-126.941
-126.942
-126.942
-126.943
-126.944
-126.945
-126.947
-126.949
-126.952
-126.956
-126.96
-126.966
-126.973
-126.982
-126.991
-127.001
-127.013
-127.025
-127.039
-127.053
-127.067
-127.083
-127.099
-127.272
-127.273
-127.273
-127.273
-127.274
-127.274
-127.275
-127.275
-127.276
-127.277
-127.278
-127.28
-127.282
-127.284
-127.288
-127.292
-127.298
-127.305
-127.312
-127.32
-127.329
-127.339
-127.35
-127.361
-127.373