/*--------------------------------*- C++ -*----------------------------------*\
| =========                 |                                                 |
| \\      /  F ield         | OpenFOAM: The Open Source CFD Toolbox           |
|  \\    /   O peration     | Version:  2412                                  |
|   \\  /    A nd           | Website:  www.openfoam.com                      |
|    \\/     M anipulation  |                                                 |
\*---------------------------------------------------------------------------*/
FoamFile
{
    version     2.0;
    format      ascii;
    arch        "LSB;label=32;scalar=64";
    class       volVectorField;
    location    "5000";
    object      wallShearStress;
}
// * * * * * * * * * * * * * * * * * * * * * * * * * * * * * * * * * * * * * //

dimensions      [0 2 -2 0 0 0 0];

internalField   uniform (0 0 0);

boundaryField
{
    frontAndBack
    {
        type            empty;
    }
    symmetry
    {
        type            symmetryPlane;
    }
    outlet
    {
        type            calculated;
        value           uniform (0 0 0);
    }
    wall
    {
        type            calculated;
        value           nonuniform List<vector> 
1155
(
(0.0232504 -0.00138175 -1.99496e-23)
(0.023039 -0.00133936 2.54831e-21)
(0.0228815 -0.00130164 9.94444e-24)
(0.0227186 -0.00126307 2.5382e-21)
(0.0225356 -0.00122423 3.0703e-27)
(0.0223774 -0.0011877 -2.51861e-21)
(0.0222211 -0.00115132 -1.84784e-26)
(0.0220755 -0.00111559 -9.84619e-24)
(0.0218727 -0.00107709 -2.52416e-21)
(0.0217126 -0.00104329 2.51989e-21)
(0.0215702 -0.00100854 3.67342e-40)
(-0.419988 0.00206255 0)
(-0.505692 0.00228952 0)
(-0.594225 0.0020379 0)
(-0.664434 0.00112818 0)
(-0.694173 -0.000231767 0)
(-0.66 -0.00271453 0)
(0.199314 -0.000238765 0)
(0.208419 -0.000222549 0)
(0.217159 -0.000208453 0)
(0.225456 -0.00020783 0)
(0.234372 -0.000223667 0)
(0.433376 -0.00349064 0)
(0.555169 0.00373647 0)
(0.321222 0.00605429 0)
(0.0940168 0.00813859 0)
(-0.178359 0.000978599 0)
(-0.169503 -0.0017051 0)
(-0.172911 -0.00100964 0)
(-0.129651 -0.00100783 0)
(-0.0869411 -0.00073646 0)
(-0.0574449 -7.23311e-05 0)
(-0.0609931 0.000609233 0)
(-0.0859222 0.000949083 0)
(-0.204867 0.0237583 -1.5298e-19)
(-0.190203 0.0223059 1.53318e-19)
(-0.173655 0.0205568 7.35927e-25)
(-0.155047 0.0185121 3.07936e-19)
(-0.134943 0.0162122 6.20275e-19)
(-0.112098 0.0134955 -6.08079e-22)
(-0.0864278 0.0103766 3.13982e-19)
(0.0171257 -9.3155e-05 -6.02317e-22)
(0.0171573 -7.20862e-05 0)
(0.0171266 -5.18882e-05 -1.11673e-39)
(0.017196 -3.27647e-05 -7.53642e-23)
(0.0172825 -1.31354e-05 3.76712e-23)
(0.0174577 -4.45104e-06 0)
(0.0176582 -3.90626e-06 0)
(0.0178158 -3.88286e-06 0)
(0.0179972 -3.5429e-06 0)
(0.0181272 -3.38058e-06 0)
(0.0183091 -3.3225e-06 0)
(0.35466 -0.000212253 0)
(0.363116 -0.000206838 0)
(0.371819 -0.000193173 0)
(0.379403 -0.000165261 0)
(0.386912 -0.000176387 0)
(0.0121334 -0.00803139 3.14602e-25)
(0.0132507 -0.00856004 -1.24322e-22)
(0.0143593 -0.00906105 -1.24916e-22)
(0.0155133 -0.0095673 -1.13677e-25)
(0.0166288 -0.0100297 -3.196e-20)
(0.0177672 -0.0104859 -4.70198e-38)
(0.018871 -0.0109042 3.22119e-20)
(0.0199784 -0.0113083 1.63612e-25)
(0.0210646 -0.0116848 -3.23197e-20)
(-0.32585 2.27636e-05 0)
(-0.323477 -0.000110228 0)
(0.018392 -1.71352e-06 0)
(0.0185024 -3.10106e-06 0)
(0.0186275 -1.89141e-06 0)
(0.0187053 -2.36145e-06 0)
(0.0188123 -2.06674e-06 0)
(0.0189155 -2.35564e-06 0)
(0.018985 -1.11485e-06 0)
(0.0190532 -2.377e-06 0)
(0.0191575 -1.02736e-06 0)
(0.0191657 -1.13775e-06 0)
(0.0192568 -1.63403e-06 0)
(-0.246899 -0.000139097 0)
(-0.240163 -0.000115916 0)
(-0.234553 -0.000101512 0)
(-0.330568 -0.000358102 0)
(-0.317352 -0.000686912 0)
(0.0864532 -0.000222301 0)
(0.0954014 -0.00017757 0)
(0.100551 -0.000127182 0)
(0.105662 -0.000143704 0)
(0.11263 -0.00018021 0)
(-0.315229 -3.99946e-05 0)
(-0.32255 -0.000270898 0)
(-0.314565 6.00635e-05 0)
(-0.31722 0.00012777 0)
(0.531767 0.000406614 0)
(0.518199 0.000489666 0)
(0.501686 0.000573084 0)
(0.482172 0.000692932 0)
(-0.246809 0.000191249 0)
(-0.326377 -8.73012e-05 0)
(-0.31971 0.000162295 0)
(-0.319439 -0.000111673 0)
(-0.270648 0.000537478 0)
(-0.288746 0.000445 0)
(-0.0608179 0.150598 0)
(0.109309 0.393999 -5.06394e-23)
(0.180088 1.42408 -2.64129e-20)
(0.27875 0.77204 -1.67798e-25)
(0.507064 1.48894 1.15006e-22)
(0.740665 1.63973 3.0644e-18)
(1.15692 1.81099 4.2957e-22)
(1.61442 2.26629 3.00441e-18)
(1.77268 2.00586 5.49865e-18)
(-0.319421 0.000206328 0)
(-0.322308 0.000189227 0)
(-0.305339 0.000402548 0)
(-0.0680872 -0.000159231 0)
(-0.0601815 -0.000157654 0)
(-0.0526338 -0.00012983 0)
(-0.0464282 -0.000103231 0)
(-0.0413803 -7.39894e-05 0)
(-0.338645 0.000212666 0)
(-0.277473 -0.000368126 0)
(-0.347818 0.000204951 0)
(-0.249773 -9.69795e-05 0)
(-0.330376 0.00021991 0)
(-0.261875 -0.00028712 0)
(-0.258201 0.00026392 0)
(-0.354599 -0.00010936 0)
(-0.323891 1.53673e-05 0)
(-0.527767 0.000309657 0)
(-0.54523 0.000367766 0)
(-0.559106 0.000171202 0)
(-0.556368 -0.000728202 0)
(-0.532389 -0.0010155 0)
(-0.204205 0.00283182 0)
(-0.308894 -0.000380206 0)
(-0.153591 -3.46494e-05 0)
(-0.28847 0.00080928 0)
(-0.119474 -0.000176547 0)
(-0.0261645 -9.49868e-05 0)
(-0.0375493 -8.00261e-05 0)
(-0.0623035 -0.000260967 0)
(-0.0504455 -0.000154924 0)
(-0.0448106 -0.000140444 0)
(-0.03094 -0.00126667 0)
(0.0117255 -0.00144237 0)
(0.0482302 0.000103444 0)
(0.0334459 -0.00500452 -2.36667e-23)
(0.0332851 -0.00492348 -1.20969e-20)
(0.0331378 -0.00484554 2.35876e-23)
(0.0329836 -0.00476726 -1.20159e-20)
(0.0328308 -0.00468921 -2.93874e-39)
(0.0325783 -0.00459766 2.32729e-23)
(0.0323844 -0.00451884 -1.19199e-20)
(0.0322185 -0.00444228 1.17549e-37)
(0.0320471 -0.00436754 9.9746e-27)
(0.0319084 -0.00429613 -6.66289e-41)
(0.375866 0.00465941 0)
(0.149993 0.00301535 0)
(0.0140108 0.0015638 0)
(0.00454001 0.00226957 0)
(0.0011801 0.00051074 0)
(-0.0143116 0.000537811 0)
(-0.136284 0.00115278 0)
(-0.190536 0.00337273 0)
(-0.322323 0.00341725 0)
(-0.430753 0.00194906 0)
(-0.49154 0.000744571 0)
(0.526855 -0.000130332 0)
(0.53465 -0.000137357 0)
(0.542525 -0.000112957 0)
(0.548795 -7.48834e-05 0)
(0.553764 -4.53306e-05 0)
(-0.445552 0.00111479 0)
(-0.499452 0.000134682 0)
(-0.523267 -0.000303825 0)
(-0.528488 -0.000611185 0)
(-0.522232 -0.00100088 0)
(0.00363287 -0.0031191 -6.20194e-20)
(0.00445149 -0.00369239 1.2163e-22)
(0.00517326 -0.00415813 1.24489e-19)
(0.00611835 -0.0047666 6.26609e-20)
(0.00693828 -0.00524797 6.27186e-20)
(0.00795883 -0.00585164 -3.15717e-20)
(0.00893159 -0.00638625 3.16573e-20)
(0.00996361 -0.00693872 3.14978e-20)
(0.0110413 -0.00749258 2.47537e-22)
(-0.359433 0.0245381 -3.04176e-22)
(-0.347214 0.0238109 3.04194e-22)
(-0.324581 0.0225098 3.02223e-22)
(-0.298054 0.0208962 2.37024e-24)
(-0.275184 0.0199541 0)
(-0.260179 0.0193556 -4.43331e-20)
(-0.25124 0.0192965 1.95041e-25)
(-0.16153 0.0339639 -2.13365e-22)
(-0.171426 0.0366095 -5.99759e-22)
(-0.179945 0.0390478 -2.39735e-20)
(-0.20365 0.0456959 4.07708e-27)
(-0.248595 0.0551752 -1.25371e-21)
(-0.297195 0.0661541 9.40395e-38)
(-0.325839 0.0725291 -3.18617e-19)
(-0.50919 -0.000911929 0)
(-0.486345 -0.000624779 0)
(-0.479421 0.000195971 0)
(-0.495654 0.000651829 0)
(-0.519789 0.000685917 0)
(0.0228125 -2.54978e-06 0)
(0.0229321 -2.57147e-06 0)
(0.0230556 -2.73328e-06 0)
(0.0231848 -2.7345e-06 0)
(0.0233126 -2.83979e-06 0)
(0.0234493 -2.94764e-06 0)
(0.0235869 -3.00955e-06 0)
(0.0237307 -3.11691e-06 0)
(0.0238763 -3.17843e-06 0)
(0.0240284 -3.31194e-06 0)
(0.0241824 -3.33063e-06 0)
(0.0243414 -3.49415e-06 0)
(0.0245053 -3.5325e-06 0)
(0.0246733 -3.71861e-06 0)
(-0.0809557 -0.00170092 0)
(-0.0126887 0.00169816 0)
(-0.174866 0.00406535 0)
(-0.37255 0.00727605 0)
(-0.62488 0.00568524 0)
(-0.798931 0.00273973 0)
(0.0303982 -0.0140836 1.2658e-25)
(0.0311479 -0.0141969 3.24968e-20)
(0.0318447 -0.0142835 3.24152e-20)
(0.0325233 -0.0143597 -3.23293e-20)
(0.0331844 -0.0144257 3.23018e-20)
(0.0338051 -0.0144716 6.33069e-23)
(0.0343879 -0.0145001 -3.19734e-36)
(0.0349379 -0.0145138 -3.2257e-20)
(0.0354439 -0.0145088 -3.2339e-20)
(0.0408043 -0.0128352 3.07646e-20)
(0.0408706 -0.0127019 0)
(0.040929 -0.0125693 -1.43726e-26)
(0.0409772 -0.0124342 6.09419e-20)
(0.0409329 -0.0122751 2.35099e-38)
(0.0409921 -0.0121515 -1.75883e-36)
(0.0410157 -0.0120161 -4.4003e-37)
(0.0410199 -0.0118797 -5.86346e-23)
(0.0410426 -0.0117486 5.86362e-23)
(-0.163182 -4.41756e-05 0)
(-0.161464 -4.53268e-05 0)
(-0.160157 -4.28659e-05 0)
(-0.157084 -0.000184639 0)
(0.0280541 -6.29212e-06 0)
(0.0283493 -6.47248e-06 0)
(0.0286571 -6.81036e-06 0)
(0.0289791 -7.05436e-06 0)
(0.0293134 -7.40951e-06 0)
(0.0296646 -7.71013e-06 0)
(0.0300291 -8.06933e-06 0)
(0.0304115 -8.42313e-06 0)
(0.0308102 -8.82746e-06 0)
(0.0312286 -9.24242e-06 0)
(0.0316664 -9.70543e-06 0)
(0.0321272 -1.01982e-05 0)
(0.03261 -1.07152e-05 0)
(0.0331194 -1.1319e-05 0)
(0.0336564 -1.19205e-05 0)
(-0.149345 -0.000290948 0)
(-0.140838 -0.000192523 0)
(-0.134043 -0.000202897 0)
(-0.126743 -0.000159506 0)
(-0.0215205 1.67926e-05 0)
(-0.0211629 -0.000202324 0)
(-0.0119056 -0.00100898 0)
(0.0280634 -0.00200575 0)
(0.10043 -0.00290091 0)
(0.255987 -0.00551512 0)
(0.314695 -0.000160234 0)
(0.321779 -0.0001835 0)
(0.329819 -0.00019164 0)
(0.337738 -0.000191093 0)
(0.345841 -0.000207125 0)
(-0.579869 9.40971e-05 0)
(-0.575859 -0.000202136 0)
(-0.559618 -0.000487633 0)
(-0.532179 -0.000732492 0)
(-0.49811 -0.000853423 0)
(0.0200291 -7.74157e-07 0)
(0.0200112 5.97159e-07 0)
(0.02002 -1.02814e-06 0)
(0.02006 3.22119e-08 0)
(0.0200464 -6.13897e-07 0)
(0.02009 -2.50283e-07 0)
(0.0200798 -1.38355e-07 0)
(0.0200941 -1.11459e-07 0)
(0.0200957 -1.42858e-07 0)
(0.0200999 -8.28888e-09 0)
(0.0201029 -1.75123e-07 0)
(0.120345 -0.000207963 0)
(0.129298 -0.000222676 0)
(0.137691 -0.000194654 0)
(0.145207 -0.000167093 0)
(0.150428 -0.0001326 0)
(0.48246 -0.391233 1.78014e-18)
(0.928427 -0.687351 1.98935e-18)
(0.362454 -0.213544 3.91573e-19)
(-0.938377 0.806255 1.85141e-18)
(-1.18371 0.98137 -4.4671e-23)
(-0.924398 0.782006 6.76589e-21)
(-0.391732 0.276442 -3.39736e-22)
(0.65939 -0.636439 -3.71421e-21)
(1.19557 -1.14498 2.20387e-18)
(0.000265222 0.00268734 -1.17549e-38)
(-6.03594e-05 0.00228296 1.84738e-21)
(-0.000178991 0.00233997 -5.75258e-37)
(-0.00031477 0.00242297 0)
(-0.000404326 0.00223936 1.48243e-20)
(-0.000548413 0.00236275 -2.97006e-20)
(-0.000613099 0.00216787 -2.96807e-20)
(-0.000733746 0.00220325 -1.16357e-22)
(-0.000786948 0.00205431 -2.97742e-20)
(0.0379948 -0.00782076 1.34486e-20)
(0.0378401 -0.00770556 5.2248e-23)
(0.0377128 -0.00759755 -5.22492e-23)
(0.03756 -0.00748539 -2.66054e-20)
(0.0374129 -0.00737651 -1.32547e-20)
(0.0372641 -0.00726813 -5.15056e-23)
(0.0371057 -0.00715965 1.32107e-20)
(0.0369575 -0.00705452 5.87747e-39)
(0.0368062 -0.00695017 -0)
(2.06384 1.93757 5.85491e-18)
(1.81613 1.404 6.01853e-36)
(1.55213 0.969681 -2.91832e-18)
(1.3222 0.65572 -2.91421e-18)
(0.944091 0.334477 0)
(-0.326647 0.00885463 -6.0079e-21)
(-2.52958 -0.348955 3.13205e-18)
(-2.71987 -0.0279693 -8.5283e-19)
(-0.519445 0.321994 1.20679e-20)
(-0.223435 0.115342 -6.16606e-21)
(0.25825 -0.175313 -8.49845e-19)
(0.213904 -0.120764 -9.40395e-38)
(-0.389259 0.306903 -7.33097e-19)
(-1.35324 0.944913 0)
(-1.10517 0.752538 -7.30366e-23)
(-0.592477 0.37974 -7.32553e-19)
(-0.297686 0.0578641 -3.26598e-19)
(-0.334951 0.0644042 0)
(-0.333959 0.0637141 -3.15769e-19)
(-0.273465 0.0515077 1.25324e-21)
(-0.209277 0.0391088 3.6834e-19)
(-0.134404 0.0262944 -3.19339e-19)
(-0.1114 0.0231801 8.47751e-22)
(-0.138144 0.0290401 -6.76842e-23)
(-0.104314 0.0362756 -7.07699e-19)
(-0.213791 0.0688215 0)
(-0.236724 0.0745454 6.85683e-19)
(-0.191144 0.0592578 -1.10297e-19)
(-0.120708 0.0332007 -7.52316e-37)
(-0.00505396 0.000802553 -1.38328e-18)
(0.00449554 -0.00260728 -4.70648e-23)
(-0.0597709 0.00717982 -3.16351e-19)
(-0.0380247 0.00477895 6.19424e-22)
(-0.0328763 0.00485186 -6.28359e-22)
(-0.0705771 0.0108965 -4.70292e-23)
(-0.117769 0.018376 -9.41209e-24)
(-0.216425 0.0324517 -6.18045e-22)
(0.0479839 -3.70194e-05 0)
(0.04978 -4.15177e-05 0)
(0.0517955 -4.68451e-05 0)
(0.0540811 -5.35982e-05 0)
(0.0567068 -6.19879e-05 0)
(0.0597553 -7.28365e-05 0)
(0.063363 -8.73431e-05 0)
(0.0677181 -0.000107245 0)
(0.0731127 -0.000135969 0)
(0.080031 -0.000179945 0)
(0.0893152 -0.000252749 0)
(0.102585 -0.000379555 0)
(0.122744 -0.000658978 0)
(0.159577 -0.00133624 0)
(-0.152485 0.0141027 2.03073e-24)
(-0.17782 0.0171829 -3.60013e-22)
(-0.224309 0.0216369 -1.58151e-19)
(-0.263412 0.0253845 -3.1425e-19)
(-0.29411 0.0282211 1.56049e-19)
(-0.312966 0.030182 2.35099e-38)
(0.0199454 -5.16676e-07 0)
(0.019974 -6.8752e-07 0)
(0.0200079 -6.56989e-07 0)
(0.0200403 -7.65827e-07 0)
(0.0200784 -7.24485e-07 0)
(0.0201109 -7.01415e-07 0)
(0.0201458 -8.96167e-07 0)
(0.0201997 -1.1482e-06 0)
(0.0202463 -9.08291e-07 0)
(0.0202914 -1.04449e-06 0)
(0.0203384 -9.67783e-07 0)
(0.0203892 -1.19756e-06 0)
(0.0204422 -1.00787e-06 0)
(0.0204908 -1.18027e-06 0)
(0.37553 -0.0132444 -1.53893e-36)
(0.355313 -0.01286 4.81364e-43)
(0.33087 -0.0119592 -7.88082e-40)
(0.30988 -0.0118125 -5.87747e-39)
(0.284383 -0.0111988 -9.99846e-20)
(0.259044 -0.0105039 -9.97299e-20)
(0.304954 -0.00218396 -1.83671e-40)
(0.326505 -0.00278055 -1.51182e-36)
(0.348596 -0.0033449 1.8782e-41)
(0.364117 -0.0037745 7.9748e-26)
(0.375721 -0.00427496 -2.04706e-20)
(0.384147 -0.00474971 -8.15759e-23)
(1.08161 -2.73294 -1.93589e-37)
(0.509395 -1.23474 5.98853e-22)
(-1.0081 4.00931 -1.75159e-18)
(-1.66158 6.5741 -1.42358e-18)
(-1.11582 3.58384 -3.91398e-22)
(0.657243 -4.04607 -1.02229e-18)
(0.222242 -1.19001 1.52249e-20)
(0.0211411 0.0123412 6.77037e-21)
(-0.295377 -0.000397559 0)
(0.0117116 -0.00970385 -1.53967e-18)
(0.109333 -0.0631744 -7.78146e-19)
(0.232999 -0.133449 -1.57678e-18)
(0.357361 -0.199281 -1.32476e-23)
(0.23585 -0.123241 -9.807e-19)
(-0.0754957 0.065008 3.16682e-21)
(-0.433387 0.263732 -7.65028e-19)
(-0.520894 0.316167 7.52316e-37)
(0.0391839 -0.0139728 -3.16469e-20)
(0.0394177 -0.0138744 -3.15065e-20)
(0.0396518 -0.0137777 -6.15766e-23)
(0.0398498 -0.0136706 -3.1341e-20)
(0.040042 -0.0135634 3.12551e-20)
(0.0402121 -0.0134509 -3.12284e-20)
(0.0403676 -0.0133353 -6.07279e-23)
(0.0404969 -0.0132133 6.07297e-23)
(0.0406188 -0.0130914 -3.08945e-20)
(0.0407139 -0.0129626 -6.03667e-23)
(0.191463 -0.000419207 0)
(0.207803 -0.000403296 0)
(0.221815 -0.000523873 -3.50414e-41)
(0.242153 -0.000963438 1.53044e-37)
(0.264535 -0.00137716 4.7764e-21)
(0.285065 -0.0017357 -9.64511e-21)
(0.020316 0.000373381 3.72293e-22)
(-0.0268282 0.00313886 -9.35468e-20)
(-0.0765307 0.00569087 -1.17549e-38)
(-0.129031 0.00858344 3.5086e-22)
(-0.181967 0.0117551 -6.93848e-22)
(-0.231133 0.0147201 -8.69313e-20)
(-0.275502 0.0174273 -3.31534e-22)
(-0.172533 -0.000125165 0)
(-0.167072 -9.39147e-05 0)
(-0.163568 -2.88834e-05 0)
(-0.16343 1.89076e-05 0)
(-0.845773 -0.00244193 0)
(-0.645264 -0.0121202 0)
(-0.38696 -0.00690257 0)
(-0.0761443 -0.00606506 0)
(0.156503 -0.00535903 0)
(0.342994 -0.00143201 0)
(0.457017 0.000989153 0)
(0.434826 0.000835714 0)
(0.406617 0.000812958 0)
(0.376604 0.000802968 0)
(0.343898 0.000861228 0)
(0.0298708 -0.00346355 -5.71802e-21)
(0.0296772 -0.00339546 4.41919e-23)
(0.0295108 -0.00333407 5.61799e-21)
(0.0293804 -0.00327491 -5.17137e-27)
(0.0292182 -0.00321443 -5.60693e-21)
(0.0290959 -0.00315766 -5.59028e-21)
(0.0289335 -0.00309744 -5.57415e-21)
(0.0287477 -0.00303476 5.55757e-21)
(0.0285664 -0.00297526 1.46937e-39)
(0.0284173 -0.00291864 -2.15556e-23)
(-0.0200039 -0.00015677 0)
(-0.0112631 -0.000166431 0)
(-0.340285 -0.000262392 0)
(-0.349356 -0.000281558 0)
(-0.303957 -0.000275037 0)
(-0.28931 -0.000321677 0)
(-0.276615 -0.000284902 0)
(-0.26448 -0.000224434 0)
(-0.254774 -0.000170614 0)
(0.0410016 -0.0116032 -5.82358e-23)
(0.0410048 -0.011471 -2.97073e-20)
(0.0408709 -0.0113036 2.96031e-20)
(0.0408659 -0.0111776 -2.95029e-20)
(0.0408372 -0.0110426 -2.94551e-20)
(0.0407739 -0.0109035 1.17549e-38)
(0.0407511 -0.0107748 4.84432e-39)
(0.0406581 -0.0106314 -5.68197e-23)
(0.0405967 -0.0104974 2.90959e-20)
(0.0404903 -0.0103546 -2.89351e-20)
(-0.00265217 -0.000242082 0)
(0.0049198 -0.000215505 0)
(0.0118066 -0.000160012 0)
(0.0180305 -0.000161772 0)
(0.0255929 -0.000179695 0)
(-0.198569 -0.000131739 0)
(-0.192213 -0.000146149 0)
(-0.185441 -0.000139229 0)
(-0.179033 -0.000136321 0)
(-0.302129 0.00037618 0)
(0.0282645 -0.00286237 -5.46752e-21)
(0.028069 -0.00280114 -6.04481e-26)
(0.0278833 -0.00274444 -4.28044e-23)
(0.0277406 -0.00269065 2.13754e-23)
(0.0275725 -0.00263647 5.47111e-21)
(0.0274577 -0.00258588 -1.06589e-23)
(0.0272346 -0.00252629 -1.06004e-23)
(0.0270933 -0.00247684 1.05439e-23)
(0.0269451 -0.00242533 -1.0544e-23)
(0.0267854 -0.0023745 4.82872e-27)
(0.394631 -0.000176489 0)
(0.402986 -0.00018968 0)
(0.411287 -0.000187489 0)
(0.420537 -0.000228893 0)
(0.430926 -0.000228116 0)
(0.44127 -0.000240561 0)
(0.452334 -0.000241597 0)
(0.462811 -0.000230368 0)
(0.473396 -0.000236641 0)
(0.0193212 3.42331e-08 0)
(0.0193184 3.14409e-08 0)
(0.0193234 -4.51088e-08 0)
(0.0193233 5.93149e-08 0)
(0.0193249 -1.25625e-07 0)
(0.0193358 -1.2768e-07 0)
(0.0193399 -1.29961e-07 0)
(0.0193512 -1.65811e-07 0)
(0.0193548 -9.5933e-08 0)
(0.0193666 -2.66777e-07 0)
(0.019376 -1.23961e-07 0)
(0.0193854 -2.78113e-07 0)
(0.0193985 -1.89688e-07 0)
(0.284063 -0.000130455 0)
(0.289838 -0.000144668 0)
(0.29579 -0.00012905 0)
(0.301502 -0.000147106 0)
(0.308071 -0.00015189 0)
(0.230679 -0.110611 -1.10834e-23)
(0.334684 -0.15654 5.40681e-39)
(0.227921 -0.106802 0)
(0.103249 -0.0407382 -3.72513e-19)
(-0.18232 0.0940862 1.54225e-35)
(-0.173198 0.0893484 -3.66588e-35)
(-0.132984 0.0662357 -7.52316e-37)
(-0.0653305 0.0318639 -7.56753e-19)
(0.0350891 -0.00587521 0)
(0.0349435 -0.00578674 1.252e-20)
(0.034747 -0.00568906 -2.43243e-23)
(0.0345607 -0.00559744 1.24333e-20)
(0.0344183 -0.00551178 2.42411e-23)
(0.0342462 -0.00542395 1.23236e-20)
(0.0341172 -0.00534258 2.4075e-23)
(0.0339547 -0.00525736 2.39096e-23)
(0.0337945 -0.00517255 -2.39102e-23)
(0.0335916 -0.00508361 -1.21791e-20)
(0.0366592 -0.00684796 3.46771e-37)
(0.0365119 -0.00674703 -1.29719e-20)
(0.0363624 -0.00664672 1.17549e-38)
(0.0362128 -0.00654786 1.28796e-20)
(0.0360602 -0.00644949 2.50208e-23)
(0.0359067 -0.00635216 1.2763e-20)
(0.0357315 -0.00625197 -2.55095e-20)
(0.0355721 -0.00615682 2.48438e-23)
(0.0354172 -0.00606271 1.26277e-20)
(0.0352616 -0.00597 2.46688e-23)
(0.290797 -0.0498588 3.73634e-19)
(0.233281 -0.0400505 3.60564e-19)
(0.165066 -0.0280649 -3.59453e-19)
(0.0848265 -0.0129842 1.38545e-21)
(-0.00799731 0.00482818 -1.36512e-21)
(-0.110237 0.0236159 -3.41932e-19)
(-0.214939 0.0429978 -3.34295e-19)
(0.156265 -0.000162904 0)
(0.162937 -0.000161808 0)
(0.170553 -0.00021429 0)
(0.180339 -0.000234102 0)
(0.189793 -0.000237153 0)
(-0.50819 -0.00850882 0)
(-0.325691 -0.00462848 0)
(-0.127497 -0.00219573 0)
(-0.0404517 7.2338e-05 0)
(-0.0501426 0.000797738 0)
(0.0196191 -4.3144e-08 0)
(0.0196266 2.30158e-07 0)
(0.0196043 8.83301e-08 0)
(0.0196237 1.38302e-07 0)
(0.0195785 1.04046e-06 0)
(0.0195569 1.61016e-07 0)
(0.0195448 7.3201e-07 0)
(0.0195158 1.34915e-07 0)
(0.019519 4.6668e-07 0)
(0.0194864 4.07921e-07 0)
(0.0194805 3.70954e-07 0)
(0.0194591 3.78876e-07 0)
(0.0193078 -9.21161e-07 0)
(0.0193416 -1.07535e-06 0)
(0.0194088 -1.5372e-06 0)
(0.0194688 -7.96171e-07 0)
(0.0194819 -5.76457e-07 0)
(0.0195291 -1.05971e-06 0)
(0.0195683 -7.51994e-07 0)
(0.0196075 -1.06681e-06 0)
(0.0196553 -9.75047e-07 0)
(0.0197014 -1.1439e-06 0)
(0.0197459 -1.01636e-06 0)
(-0.329787 0.0735324 6.35485e-19)
(-0.311563 0.0699584 -3.1709e-19)
(-0.28807 0.0651433 3.17592e-19)
(-0.258703 0.0587869 -3.18221e-19)
(-0.221838 0.0507136 1.23349e-21)
(-0.179017 0.0397413 -7.34684e-40)
(-0.141619 0.0319491 2.35332e-24)
(-0.0910092 0.0204192 1.71181e-37)
(2.72118 -1.83823 -3.2835e-21)
(6.88501 -6.0704 1.62748e-18)
(6.88184 -10.9928 1.19481e-20)
(1.70927 -10.9629 7.58691e-19)
(-1.99301 -8.75449 1.68841e-21)
(-3.71233 -5.61364 -6.14021e-19)
(-3.14483 -2.23755 -2.90863e-19)
(-1.77231 -0.476685 -4.64198e-20)
(-0.346629 -0.0594528 3.64403e-37)
(-0.0475774 -0.0142152 0)
(0.146716 -0.00165578 0)
(0.158139 -0.000678891 0)
(0.178245 -4.49843e-05 0)
(0.175611 -0.000163251 0)
(0.181448 -0.000208001 0)
(-0.316278 0.0468356 -3.12858e-19)
(-0.418968 0.0611673 -3.09204e-19)
(-0.497148 0.071619 6.05872e-19)
(-0.529405 0.0756189 2.98388e-19)
(-0.511508 0.0721786 0)
(-0.418314 0.0569216 0)
(-0.323073 0.0451637 3.0837e-19)
(0.0402987 0.00272863 0)
(-0.0453384 0.00323037 0)
(-0.142414 0.00291809 0)
(-0.251086 0.00256321 0)
(-0.357768 0.00199145 0)
(0.483672 -0.000209867 0)
(0.493184 -0.000187825 0)
(0.501815 -0.000162855 0)
(0.510235 -0.000165282 0)
(0.518926 -0.000145914 0)
(0.0393994 -0.00903211 1.40031e-20)
(0.0392458 -0.00890015 -1.39524e-20)
(0.0391101 -0.00877407 2.76932e-20)
(0.0389842 -0.00865234 0)
(0.0388148 -0.00852099 -1.37448e-20)
(0.0386573 -0.00839707 0)
(0.038532 -0.00827943 1.36452e-20)
(0.0383766 -0.00815888 -1.35435e-20)
(0.0382687 -0.0080483 1.34408e-20)
(0.0381139 -0.00793026 1.35506e-20)
(0.0196149 -4.40753e-07 0)
(0.0196412 -5.98908e-07 0)
(0.0196666 -5.1177e-07 0)
(0.0196944 -6.1553e-07 0)
(0.0197183 -3.95748e-07 0)
(0.0197386 -5.83232e-07 0)
(0.0197685 -4.39007e-07 0)
(0.0197825 -3.05425e-07 0)
(0.0197985 -3.80272e-07 0)
(0.019823 -6.90563e-07 0)
(0.0198625 -7.39013e-07 0)
(0.0198896 -5.70006e-07 0)
(0.0199192 -6.18082e-07 0)
(-0.130554 -0.0437614 1.83022e-20)
(-0.0275934 -0.0169637 -8.39288e-23)
(-0.00658117 -0.00617069 1.25565e-20)
(-0.00127352 -0.00231292 -2.12991e-24)
(-0.286137 0.0303788 4.87025e-25)
(-0.275382 0.0296283 1.51694e-19)
(-0.264217 0.0287261 4.29408e-20)
(-0.25383 0.0278425 1.90924e-24)
(-0.243082 0.0272236 -1.19066e-21)
(-0.231255 0.0261601 -1.51921e-19)
(-0.218576 0.0250374 -1.66957e-37)
(-0.487888 -0.00222724 0)
(-0.407773 -0.00356805 0)
(-0.300666 -0.00304972 0)
(-0.180449 -0.00167187 0)
(-0.113074 0.00013508 0)
(0.0200339 3.07014e-07 0)
(0.0200155 1.43666e-07 0)
(0.0200162 1.40919e-07 0)
(0.0200103 -5.30798e-08 0)
(0.0200172 -8.77821e-08 0)
(0.0200202 -4.39019e-08 0)
(0.0200165 1.16462e-08 0)
(0.0200244 9.82177e-08 0)
(0.0199947 8.5436e-07 0)
(0.0199656 3.20531e-07 0)
(0.0199561 4.58754e-07 0)
(0.0199382 1.62397e-07 0)
(-0.308912 0.0194438 3.31305e-22)
(-0.33143 0.0209723 4.70198e-38)
(-0.344507 0.0220755 -3.25581e-19)
(-0.354199 0.0231216 -1.61143e-19)
(-0.358774 0.0237104 -3.08969e-22)
(-0.359121 0.0242097 3.08941e-22)
(0.423839 -0.0087537 4.53439e-20)
(0.426127 -0.00928231 -9.00852e-23)
(0.428033 -0.00983893 9.28388e-20)
(0.429134 -0.0103862 5.87747e-39)
(0.430786 -0.0110048 -4.73011e-20)
(0.433669 -0.0116139 0)
(-0.217461 -6.16519e-05 0)
(-0.213932 -8.74709e-05 0)
(-0.209555 -0.000113006 0)
(-0.204331 -0.000128401 0)
(0.0173951 0.00147171 0)
(-0.0546676 0.00440743 0)
(-0.212694 0.00373155 0)
(-0.326645 0.000894707 0)
(-0.321348 -0.00076558 0)
(-0.258469 -0.00387041 0)
(-0.111741 -0.000162428 0)
(-0.103781 -0.000213058 0)
(-0.0939512 -0.000196026 0)
(-0.0849089 -0.000204907 0)
(-0.0757216 -0.000174108 0)
(1.39838 -1.32173 2.46591e-18)
(0.694995 -0.588382 -1.67779e-19)
(-1.04179 1.21742 3.76158e-37)
(-1.80418 1.97759 -5.69129e-22)
(-1.39398 1.5833 4.65198e-23)
(-0.799988 0.941024 3.57795e-20)
(-0.439667 0.485606 5.75075e-20)
(0.443823 -0.702431 2.49324e-18)
(0.01945 2.49549e-07 0)
(0.0194409 1.65341e-07 0)
(0.0194395 5.08259e-09 0)
(0.0194416 -5.86131e-08 0)
(0.0194466 3.42001e-08 0)
(0.019437 1.48029e-07 0)
(0.0194428 -3.39145e-07 0)
(0.0194593 5.69003e-08 0)
(0.0194388 3.51525e-07 0)
(0.0194338 1.2738e-07 0)
(0.0194245 2.71658e-07 0)
(0.0194169 9.63635e-08 0)
(0.0194131 1.89965e-07 0)
(1.38116 -1.85378 1.44787e-21)
(0.412779 -0.516688 2.32382e-20)
(-0.345556 0.545923 -7.33968e-21)
(-0.164178 0.243921 -1.50297e-18)
(-0.0702958 0.126976 -1.20941e-20)
(-0.115038 0.201076 -1.44008e-22)
(0.0758783 -0.221184 -1.61367e-18)
(0.37445 -1.09113 -3.65248e-22)
(0.225365 -0.00494204 0)
(0.0317246 -0.00422002 2.67069e-38)
(0.0315175 -0.00414136 2.28109e-23)
(0.0313423 -0.00407026 1.16682e-20)
(0.0312008 -0.00400182 1.16079e-20)
(0.0310308 -0.00393232 2.26104e-23)
(0.0309171 -0.00386841 1.15581e-20)
(0.0306767 -0.00378992 -1.15443e-20)
(0.0305209 -0.003725 -9.41865e-37)
(0.0303617 -0.00365838 -5.74778e-21)
(0.030195 -0.00359261 2.23317e-23)
(0.0300264 -0.00352657 2.21957e-23)
(0.24132 -0.0633037 6.73457e-19)
(0.246021 -0.0653125 -6.80907e-19)
(0.25533 -0.0686367 -6.86408e-19)
(0.263058 -0.0714779 -1.38356e-18)
(0.273381 -0.0751779 0)
(0.282773 -0.0785605 -7.02071e-19)
(0.291389 -0.0818331 1.41466e-18)
(0.30022 -0.0851603 1.4254e-18)
(-0.229553 -8.91386e-05 0)
(-0.22531 -7.15845e-05 0)
(-0.222128 -5.44797e-05 0)
(-0.21989 -3.81799e-05 0)
(-0.238848 0.0180565 7.06746e-25)
(-0.207427 0.0154855 -1.55311e-19)
(-0.172479 0.0134989 -3.12854e-19)
(-0.151087 0.0122881 -9.98616e-25)
(-0.138755 0.0115461 3.07838e-22)
(-0.132861 0.0115076 0)
(-0.135969 0.0122341 -1.59405e-19)
(0.243261 -0.000228614 0)
(0.252729 -0.000235533 0)
(0.261359 -0.000205634 0)
(0.269538 -0.000217183 0)
(0.278089 -0.000172811 0)
(0.0194063 9.19816e-08 0)
(0.0194026 2.31065e-07 0)
(0.0193925 -7.06134e-09 0)
(0.0194038 1.80018e-07 0)
(0.019372 6.69651e-07 0)
(0.0193608 7.1915e-08 0)
(0.0193574 3.01739e-07 0)
(0.0193474 -1.8964e-08 0)
(0.0193524 2.03246e-07 0)
(0.0193375 2.28731e-07 0)
(0.0193307 3.03383e-07 0)
(0.0193182 1.38154e-07 0)
(0.0404052 -0.0102188 -2.87737e-20)
(0.0402677 -0.0100725 -2.04719e-25)
(0.0401796 -0.00994105 2.8566e-20)
(0.0400516 -0.00980095 1.42585e-20)
(0.039952 -0.00967117 1.17549e-38)
(0.0398422 -0.00953926 -1.41547e-20)
(0.0397341 -0.00941119 -1.4104e-20)
(0.0396233 -0.00928263 -1.39967e-20)
(0.0395041 -0.00915582 -1.40557e-20)
(0.0342227 -1.2623e-05 0)
(0.0348232 -1.33597e-05 0)
(0.0354576 -1.41588e-05 0)
(0.0361321 -1.50734e-05 0)
(0.0368502 -1.60611e-05 0)
(0.037616 -1.71753e-05 0)
(0.0384362 -1.84064e-05 0)
(0.0393149 -1.97762e-05 0)
(0.0402619 -2.136e-05 0)
(0.0412847 -2.31149e-05 0)
(0.042394 -2.51409e-05 0)
(0.043601 -2.74113e-05 0)
(0.0449204 -3.0134e-05 0)
(0.0463755 -3.33008e-05 0)
(0.0214605 -1.60833e-06 0)
(0.0215376 -1.71468e-06 0)
(0.0216196 -1.74513e-06 0)
(0.0217042 -1.88555e-06 0)
(0.0217952 -1.92892e-06 0)
(0.0218861 -1.97212e-06 0)
(0.021979 -1.99405e-06 0)
(0.0220737 -2.05644e-06 0)
(0.0221697 -2.05237e-06 0)
(0.022267 -2.1636e-06 0)
(0.0223704 -2.22885e-06 0)
(0.022475 -2.31161e-06 0)
(0.0225864 -2.37928e-06 0)
(0.0226959 -2.38948e-06 0)
(0.0194091 -2.40229e-07 0)
(0.0194168 -7.01178e-08 0)
(0.0194232 -1.99928e-07 0)
(0.0194324 -1.34749e-07 0)
(0.019444 -3.76316e-07 0)
(0.0194639 -3.81511e-07 0)
(0.0194849 -5.74592e-07 0)
(0.0195111 -4.01842e-07 0)
(0.0195244 -3.91567e-07 0)
(0.0195471 -3.98059e-07 0)
(0.0195608 -2.13029e-07 0)
(0.0195711 -3.26965e-07 0)
(0.0195949 -4.82595e-07 0)
(0.449287 -0.0739236 -6.75706e-22)
(0.454828 -0.0751432 -1.09846e-23)
(0.453014 -0.0753901 3.54775e-19)
(0.436538 -0.0730324 0)
(0.40846 -0.0689283 -3.61023e-19)
(0.376102 -0.0637098 2.58105e-19)
(0.332105 -0.0564903 -9.66193e-24)
(0.0197995 -1.06145e-06 0)
(0.0198216 -7.52764e-07 0)
(0.0198878 -1.15481e-06 0)
(0.0198774 6.1563e-07 0)
(0.0198828 -1.15278e-06 0)
(0.0199315 9.69904e-08 0)
(0.0199048 -4.80685e-07 0)
(0.0199544 -3.93803e-07 0)
(0.0199502 -4.70492e-07 0)
(0.0199928 -4.47025e-07 0)
(0.0199803 -2.06301e-07 0)
(0.0198463 2.77614e-07 0)
(0.019846 2.61813e-07 0)
(0.0198223 4.15641e-07 0)
(0.0198167 1.01737e-07 0)
(0.0198087 2.8308e-07 0)
(0.0198014 -8.04159e-08 0)
(0.0198121 -6.58681e-08 0)
(0.0198097 -8.43645e-08 0)
(0.0198186 -1.50565e-08 0)
(0.019808 2.91619e-07 0)
(0.0197976 2.97019e-07 0)
(0.0197773 5.52649e-07 0)
(0.0197569 2.86997e-07 0)
(-0.310451 -0.00037649 0)
(-0.293301 -0.000505284 0)
(-0.270191 -0.0006326 0)
(-0.244349 -0.00074683 0)
(-0.211592 -0.0017663 0)
(-0.146759 0.00168327 0)
(-0.20472 0.00131077 0)
(-0.250852 0.00110207 0)
(-0.296812 0.00115422 0)
(-0.349572 0.00157808 0)
(0.0248575 -0.00180143 -1.01836e-23)
(0.0247239 -0.00175872 2.38471e-26)
(0.0245187 -0.00171075 -1.03813e-20)
(0.0243485 -0.00166838 -5.19456e-21)
(0.0242008 -0.00162612 2.25341e-26)
(0.0240359 -0.00158391 1.00919e-23)
(0.0238502 -0.00153988 -1.0048e-23)
(0.0236853 -0.00150012 1.00482e-23)
(0.0235496 -0.00146028 4.33455e-40)
(0.0233764 -0.00142017 9.98509e-24)
(0.0197497 3.67339e-07 0)
(0.0197288 2.54386e-07 0)
(0.0197303 6.74063e-08 0)
(0.019719 2.77287e-07 0)
(0.0197123 2.27639e-07 0)
(0.0196931 3.44838e-07 0)
(0.0196949 1.56007e-07 0)
(0.0196632 9.09512e-07 0)
(0.0196398 1.14244e-07 0)
(0.0196368 4.63243e-07 0)
(0.0196194 -4.44936e-08 0)
(0.0196295 1.2897e-07 0)
(-0.0522735 0.0197506 -6.82636e-19)
(-0.0643395 0.0252134 -8.04979e-35)
(-0.0901365 0.0349839 -8.5958e-38)
(-0.0944946 0.0363834 -1.01074e-21)
(-0.0810683 0.0308756 -2.61473e-24)
(-0.0490095 0.0170431 -6.04293e-19)
(0.032781 -0.0169889 9.39371e-24)
(0.174746 -0.076963 -1.35614e-21)
(-0.210206 0.0287329 2.53907e-35)
(-0.102748 0.0130847 -3.029e-19)
(0.00183625 -0.00313055 -1.88079e-37)
(0.100294 -0.0179012 3.13159e-19)
(0.185801 -0.0316541 -6.14341e-22)
(0.279361 -0.0468466 -3.22777e-19)
(0.365039 -0.0604156 3.29331e-19)
(0.419801 -0.068981 2.82119e-37)
(0.23215 -0.00964539 9.93528e-20)
(0.203076 -0.00859269 1.92422e-22)
(0.171902 -0.00737822 -9.84394e-20)
(0.138507 -0.00595044 -3.52648e-36)
(0.102667 -0.00432941 9.67056e-20)
(0.0635924 -0.00239947 -3.71484e-22)
(0.0266519 -0.00232503 -1.55018e-37)
(0.0264292 -0.00226887 -5.33848e-21)
(0.026277 -0.00222131 -1.04341e-23)
(0.0261249 -0.00217242 -1.03812e-23)
(0.0259692 -0.0021244 2.07367e-23)
(0.0257867 -0.00207361 -2.57555e-26)
(0.0255995 -0.0020252 -5.30307e-21)
(0.0254586 -0.00197984 1.03047e-23)
(0.0252925 -0.00193348 -1.77931e-40)
(0.0251558 -0.00188947 -1.02312e-23)
(0.0250027 -0.00184491 5.2425e-21)
(0.022128 -0.012035 1.26503e-22)
(0.0231627 -0.0123571 -6.49369e-20)
(0.0241791 -0.0126582 -3.25653e-20)
(0.0251536 -0.012927 -3.23405e-20)
(0.0261184 -0.0131816 2.35099e-38)
(0.0270259 -0.0133991 -1.26992e-22)
(0.0279257 -0.0136062 1.26996e-22)
(0.028796 -0.0138145 -4.52363e-27)