/*--------------------------------*- C++ -*----------------------------------*\
| =========                 |                                                 |
| \\      /  F ield         | OpenFOAM: The Open Source CFD Toolbox           |
|  \\    /   O peration     | Version:  2412                                  |
|   \\  /    A nd           | Website:  www.openfoam.com                      |
|    \\/     M anipulation  |                                                 |
\*---------------------------------------------------------------------------*/
FoamFile
{
    version     2.0;
    format      ascii;
    arch        "LSB;label=32;scalar=64";
    class       volScalarField;
    location    "4000";
    object      Cy;
}
// * * * * * * * * * * * * * * * * * * * * * * * * * * * * * * * * * * * * * //

dimensions      [0 1 0 0 0 0 0];

internalField   nonuniform List<scalar> 
360650
(
0.247701
0.247752
0.247805
0.247862
0.247921
0.247983
0.248049
0.248117
0.248189
0.248265
0.248344
0.248427
0.248515
0.248607
0.248703
0.248805
0.248911
0.249023
0.24914
0.249263
0.249392
0.249528
0.24967
0.24982
0.249977
0.250142
0.250315
0.250497
0.247642
0.247693
0.247747
0.247803
0.247862
0.247925
0.24799
0.248058
0.24813
0.248206
0.248285
0.248369
0.248456
0.248548
0.248645
0.248746
0.248852
0.248964
0.249081
0.249204
0.249334
0.249469
0.249612
0.249762
0.249919
0.250084
0.250257
0.250439
0.247584
0.247636
0.247689
0.247746
0.247805
0.247867
0.247932
0.248001
0.248073
0.248149
0.248228
0.248311
0.248399
0.248491
0.248587
0.248689
0.248795
0.248907
0.249024
0.249147
0.249276
0.249412
0.249555
0.249704
0.249861
0.250026
0.2502
0.250382
0.247528
0.247579
0.247633
0.24769
0.247749
0.247811
0.247876
0.247945
0.248017
0.248092
0.248172
0.248255
0.248343
0.248435
0.248531
0.248632
0.248739
0.248851
0.248968
0.249091
0.24922
0.249356
0.249499
0.249648
0.249805
0.24997
0.250144
0.250326
0.247473
0.247524
0.247578
0.247635
0.247694
0.247756
0.247821
0.24789
0.247962
0.248038
0.248117
0.2482
0.248288
0.24838
0.248476
0.248578
0.248684
0.248796
0.248913
0.249036
0.249165
0.249301
0.249444
0.249593
0.249751
0.249916
0.250089
0.250271
0.24742
0.247471
0.247525
0.247581
0.24764
0.247702
0.247768
0.247836
0.247908
0.247984
0.248063
0.248147
0.248234
0.248326
0.248423
0.248524
0.24863
0.248742
0.248859
0.248983
0.249112
0.249248
0.24939
0.24954
0.249697
0.249862
0.250036
0.250217
0.247367
0.247418
0.247472
0.247529
0.247588
0.24765
0.247715
0.247784
0.247856
0.247932
0.248011
0.248094
0.248182
0.248274
0.24837
0.248472
0.248578
0.24869
0.248807
0.24893
0.24906
0.249195
0.249338
0.249488
0.249645
0.24981
0.249983
0.250165
0.247316
0.247367
0.247421
0.247477
0.247537
0.247599
0.247664
0.247733
0.247805
0.247881
0.24796
0.248043
0.248131
0.248223
0.248319
0.248421
0.248527
0.248639
0.248756
0.248879
0.249009
0.249144
0.249287
0.249437
0.249594
0.249759
0.249932
0.250114
0.247266
0.247317
0.247371
0.247428
0.247487
0.247549
0.247614
0.247683
0.247755
0.247831
0.24791
0.247993
0.248081
0.248173
0.248269
0.248371
0.248477
0.248589
0.248706
0.248829
0.248959
0.249095
0.249237
0.249387
0.249544
0.249709
0.249883
0.250065
0.247218
0.247269
0.247323
0.247379
0.247438
0.2475
0.247566
0.247634
0.247706
0.247782
0.247861
0.247945
0.248032
0.248124
0.248221
0.248322
0.248429
0.24854
0.248658
0.248781
0.24891
0.249046
0.249189
0.249338
0.249496
0.249661
0.249834
0.250016
0.24717
0.247221
0.247275
0.247332
0.247391
0.247453
0.247518
0.247587
0.247659
0.247735
0.247814
0.247897
0.247985
0.248077
0.248174
0.248275
0.248381
0.248493
0.24861
0.248734
0.248863
0.248999
0.249141
0.249291
0.249448
0.249614
0.249787
0.249969
0.241225
0.241174
0.24112
0.241063
0.241004
0.240942
0.240876
0.240808
0.240736
0.24066
0.24058
0.240497
0.240409
0.240317
0.240221
0.240119
0.240013
0.239901
0.239783
0.23966
0.23953
0.239394
0.239252
0.239102
0.238944
0.238779
0.238605
0.238423
0.241225
0.241174
0.24112
0.241063
0.241004
0.240942
0.240876
0.240808
0.240736
0.24066
0.24058
0.240497
0.240409
0.240317
0.240221
0.240119
0.240013
0.239901
0.239783
0.23966
0.23953
0.239394
0.239252
0.239102
0.238944
0.238779
0.238605
0.238423
0.241225
0.241174
0.24112
0.241063
0.241004
0.240942
0.240876
0.240808
0.240736
0.24066
0.24058
0.240497
0.240409
0.240317
0.240221
0.240119
0.240013
0.239901
0.239783
0.23966
0.23953
0.239394
0.239252
0.239102
0.238944
0.238779
0.238605
0.238423
0.241225
0.241174
0.24112
0.241063
0.241004
0.240942
0.240876
0.240808
0.240736
0.24066
0.24058
0.240497
0.240409
0.240317
0.240221
0.240119
0.240013
0.239901
0.239783
0.23966
0.23953
0.239394
0.239252
0.239102
0.238944
0.238779
0.238605
0.238423
0.241225
0.241174
0.24112
0.241063
0.241004
0.240942
0.240876
0.240808
0.240736
0.24066
0.24058
0.240497
0.240409
0.240317
0.240221
0.240119
0.240013
0.239901
0.239783
0.23966
0.23953
0.239394
0.239252
0.239102
0.238944
0.238779
0.238605
0.238423
0.241225
0.241174
0.24112
0.241063
0.241004
0.240942
0.240876
0.240808
0.240736
0.24066
0.24058
0.240497
0.240409
0.240317
0.240221
0.240119
0.240013
0.239901
0.239783
0.23966
0.23953
0.239394
0.239252
0.239102
0.238944
0.238779
0.238605
0.238423
0.241225
0.241174
0.24112
0.241063
0.241004
0.240942
0.240876
0.240808
0.240736
0.24066
0.24058
0.240497
0.240409
0.240317
0.240221
0.240119
0.240013
0.239901
0.239783
0.23966
0.23953
0.239394
0.239252
0.239102
0.238944
0.238779
0.238605
0.238423
0.241225
0.241174
0.24112
0.241063
0.241004
0.240942
0.240876
0.240808
0.240736
0.24066
0.24058
0.240497
0.240409
0.240317
0.240221
0.240119
0.240013
0.239901
0.239783
0.23966
0.23953
0.239394
0.239252
0.239102
0.238944
0.238779
0.238605
0.238423
0.241225
0.241174
0.24112
0.241063
0.241004
0.240942
0.240876
0.240808
0.240736
0.24066
0.24058
0.240497
0.240409
0.240317
0.240221
0.240119
0.240013
0.239901
0.239783
0.23966
0.23953
0.239394
0.239252
0.239102
0.238944
0.238779
0.238605
0.238423
0.241225
0.241174
0.24112
0.241063
0.241004
0.240942
0.240876
0.240808
0.240736
0.24066
0.24058
0.240497
0.240409
0.240317
0.240221
0.240119
0.240013
0.239901
0.239783
0.23966
0.23953
0.239394
0.239252
0.239102
0.238944
0.238779
0.238605
0.238423
0.241225
0.241174
0.24112
0.241063
0.241004
0.240942
0.240876
0.240808
0.240736
0.24066
0.24058
0.240497
0.240409
0.240317
0.240221
0.240119
0.240013
0.239901
0.239783
0.23966
0.23953
0.239394
0.239252
0.239102
0.238944
0.238779
0.238605
0.238423
0.241225
0.241174
0.24112
0.241063
0.241004
0.240942
0.240876
0.240808
0.240736
0.24066
0.24058
0.240497
0.240409
0.240317
0.240221
0.240119
0.240013
0.239901
0.239783
0.23966
0.23953
0.239394
0.239252
0.239102
0.238944
0.238779
0.238605
0.238423
0.241225
0.241174
0.24112
0.241063
0.241004
0.240942
0.240876
0.240808
0.240736
0.24066
0.24058
0.240497
0.240409
0.240317
0.240221
0.240119
0.240013
0.239901
0.239783
0.23966
0.23953
0.239394
0.239252
0.239102
0.238944
0.238779
0.238605
0.238423
0.241225
0.241174
0.24112
0.241063
0.241004
0.240942
0.240876
0.240808
0.240736
0.24066
0.24058
0.240497
0.240409
0.240317
0.240221
0.240119
0.240013
0.239901
0.239783
0.23966
0.23953
0.239394
0.239252
0.239102
0.238944
0.238779
0.238605
0.238423
0.241225
0.241174
0.24112
0.241063
0.241004
0.240942
0.240876
0.240808
0.240736
0.24066
0.24058
0.240497
0.240409
0.240317
0.240221
0.240119
0.240013
0.239901
0.239783
0.23966
0.23953
0.239394
0.239252
0.239102
0.238944
0.238779
0.238605
0.238423
0.241225
0.241174
0.24112
0.241063
0.241004
0.240942
0.240876
0.240808
0.240736
0.24066
0.24058
0.240497
0.240409
0.240317
0.240221
0.240119
0.240013
0.239901
0.239783
0.23966
0.23953
0.239394
0.239252
0.239102
0.238944
0.238779
0.238605
0.238423
0.241225
0.241174
0.24112
0.241063
0.241004
0.240942
0.240876
0.240808
0.240736
0.24066
0.24058
0.240497
0.240409
0.240317
0.240221
0.240119
0.240013
0.239901
0.239783
0.23966
0.23953
0.239394
0.239252
0.239102
0.238944
0.238779
0.238605
0.238423
0.241225
0.241174
0.24112
0.241063
0.241004
0.240942
0.240876
0.240808
0.240736
0.24066
0.24058
0.240497
0.240409
0.240317
0.240221
0.240119
0.240013
0.239901
0.239783
0.23966
0.23953
0.239394
0.239252
0.239102
0.238944
0.238779
0.238605
0.238423
0.241225
0.241174
0.24112
0.241063
0.241004
0.240942
0.240876
0.240808
0.240736
0.24066
0.24058
0.240497
0.240409
0.240317
0.240221
0.240119
0.240013
0.239901
0.239783
0.23966
0.23953
0.239394
0.239252
0.239102
0.238944
0.238779
0.238605
0.238423
0.241225
0.241174
0.24112
0.241063
0.241004
0.240942
0.240876
0.240808
0.240736
0.24066
0.24058
0.240497
0.240409
0.240317
0.240221
0.240119
0.240013
0.239901
0.239783
0.23966
0.23953
0.239394
0.239252
0.239102
0.238944
0.238779
0.238605
0.238423
0.241225
0.241174
0.24112
0.241063
0.241004
0.240942
0.240876
0.240808
0.240736
0.24066
0.24058
0.240497
0.240409
0.240317
0.240221
0.240119
0.240013
0.239901
0.239783
0.23966
0.23953
0.239394
0.239252
0.239102
0.238944
0.238779
0.238605
0.238423
0.241225
0.241174
0.24112
0.241063
0.241004
0.240942
0.240876
0.240808
0.240736
0.24066
0.24058
0.240497
0.240409
0.240317
0.240221
0.240119
0.240013
0.239901
0.239783
0.23966
0.23953
0.239394
0.239252
0.239102
0.238944
0.238779
0.238605
0.238423
0.241225
0.241174
0.24112
0.241063
0.241004
0.240942
0.240876
0.240808
0.240736
0.24066
0.24058
0.240497
0.240409
0.240317
0.240221
0.240119
0.240013
0.239901
0.239783
0.23966
0.23953
0.239394
0.239252
0.239102
0.238944
0.238779
0.238605
0.238423
0.24623
0.246179
0.246125
0.246069
0.24601
0.245948
0.245883
0.245815
0.245744
0.245668
0.245589
0.245507
0.24542
0.245328
0.245232
0.245131
0.245026
0.244914
0.244798
0.244675
0.244547
0.244412
0.24427
0.244121
0.243965
0.2438
0.243628
0.243447
0.246347
0.246296
0.246243
0.246187
0.246128
0.246066
0.246001
0.245933
0.245861
0.245786
0.245707
0.245624
0.245537
0.245446
0.24535
0.245249
0.245143
0.245032
0.244916
0.244793
0.244664
0.244529
0.244388
0.244239
0.244083
0.243918
0.243746
0.243565
0.246466
0.246415
0.246362
0.246306
0.246247
0.246185
0.24612
0.246052
0.24598
0.245905
0.245826
0.245743
0.245656
0.245565
0.245469
0.245368
0.245262
0.245151
0.245035
0.244912
0.244784
0.244649
0.244507
0.244358
0.244202
0.244038
0.243866
0.243685
0.246587
0.246536
0.246482
0.246426
0.246367
0.246306
0.246241
0.246172
0.246101
0.246026
0.245947
0.245864
0.245777
0.245686
0.24559
0.245489
0.245383
0.245272
0.245156
0.245033
0.244905
0.24477
0.244628
0.244479
0.244323
0.244159
0.243987
0.243806
0.246709
0.246658
0.246604
0.246548
0.246489
0.246428
0.246363
0.246295
0.246223
0.246148
0.246069
0.245986
0.245899
0.245808
0.245712
0.245611
0.245505
0.245394
0.245278
0.245155
0.245027
0.244892
0.24475
0.244602
0.244445
0.244281
0.244109
0.243928
0.246832
0.246781
0.246728
0.246672
0.246613
0.246551
0.246486
0.246418
0.246347
0.246272
0.246193
0.24611
0.246023
0.245932
0.245836
0.245735
0.245629
0.245518
0.245402
0.245279
0.245151
0.245016
0.244874
0.244725
0.244569
0.244405
0.244233
0.244052
0.246957
0.246906
0.246853
0.246797
0.246738
0.246676
0.246611
0.246543
0.246472
0.246397
0.246318
0.246235
0.246148
0.246057
0.245961
0.24586
0.245755
0.245644
0.245527
0.245405
0.245276
0.245141
0.245
0.244851
0.244695
0.244531
0.244359
0.244178
0.246287
0.246339
0.246392
0.246449
0.246508
0.24657
0.246636
0.246705
0.246777
0.246852
0.246932
0.247015
0.247103
0.247195
0.247292
0.247393
0.2475
0.247612
0.247729
0.247852
0.247982
0.248118
0.248261
0.248411
0.248568
0.248733
0.248907
0.249089
0.246283
0.246334
0.246388
0.246444
0.246503
0.246566
0.246631
0.2467
0.246772
0.246848
0.246927
0.247011
0.247098
0.24719
0.247287
0.247388
0.247495
0.247607
0.247724
0.247848
0.247977
0.248113
0.248256
0.248406
0.248563
0.248728
0.248902
0.249084
0.246279
0.24633
0.246384
0.24644
0.2465
0.246562
0.246627
0.246696
0.246768
0.246844
0.246924
0.247007
0.247095
0.247187
0.247283
0.247385
0.247491
0.247603
0.247721
0.247844
0.247974
0.24811
0.248252
0.248402
0.24856
0.248725
0.248898
0.249081
0.246277
0.246328
0.246382
0.246438
0.246497
0.24656
0.246625
0.246694
0.246766
0.246842
0.246921
0.247005
0.247092
0.247184
0.247281
0.247382
0.247489
0.247601
0.247718
0.247842
0.247971
0.248107
0.24825
0.2484
0.248557
0.248723
0.248896
0.249078
0.246275
0.246327
0.24638
0.246437
0.246496
0.246558
0.246624
0.246693
0.246765
0.24684
0.24692
0.247003
0.247091
0.247183
0.24728
0.247381
0.247488
0.2476
0.247717
0.24784
0.24797
0.248106
0.248249
0.248399
0.248556
0.248721
0.248895
0.249077
0.246275
0.246326
0.24638
0.246437
0.246496
0.246558
0.246624
0.246692
0.246764
0.24684
0.24692
0.247003
0.247091
0.247183
0.247279
0.247381
0.247487
0.247599
0.247717
0.24784
0.24797
0.248106
0.248248
0.248398
0.248556
0.248721
0.248895
0.249077
0.246275
0.246326
0.24638
0.246437
0.246496
0.246558
0.246624
0.246692
0.246764
0.24684
0.24692
0.247003
0.247091
0.247183
0.247279
0.247381
0.247487
0.247599
0.247717
0.24784
0.24797
0.248106
0.248248
0.248398
0.248556
0.248721
0.248895
0.249077
0.246275
0.246326
0.24638
0.246437
0.246496
0.246558
0.246624
0.246692
0.246764
0.24684
0.24692
0.247003
0.247091
0.247183
0.247279
0.247381
0.247487
0.247599
0.247717
0.24784
0.24797
0.248106
0.248248
0.248398
0.248556
0.248721
0.248895
0.249077
0.246275
0.246326
0.24638
0.246437
0.246496
0.246558
0.246624
0.246692
0.246764
0.24684
0.24692
0.247003
0.247091
0.247183
0.247279
0.247381
0.247487
0.247599
0.247717
0.24784
0.24797
0.248106
0.248248
0.248398
0.248556
0.248721
0.248895
0.249077
0.246275
0.246326
0.24638
0.246437
0.246496
0.246558
0.246624
0.246692
0.246764
0.24684
0.24692
0.247003
0.247091
0.247183
0.247279
0.247381
0.247487
0.247599
0.247717
0.24784
0.24797
0.248106
0.248248
0.248398
0.248556
0.248721
0.248895
0.249077
0.246275
0.246326
0.24638
0.246437
0.246496
0.246558
0.246624
0.246692
0.246764
0.24684
0.24692
0.247003
0.247091
0.247183
0.247279
0.247381
0.247487
0.247599
0.247717
0.24784
0.24797
0.248106
0.248248
0.248398
0.248556
0.248721
0.248895
0.249077
0.241225
0.241174
0.24112
0.241063
0.241004
0.240942
0.240876
0.240808
0.240736
0.24066
0.24058
0.240497
0.240409
0.240317
0.240221
0.240119
0.240013
0.239901
0.239783
0.23966
0.23953
0.239394
0.239252
0.239102
0.238944
0.238779
0.238605
0.238423
0.241225
0.241174
0.24112
0.241063
0.241004
0.240942
0.240876
0.240808
0.240736
0.24066
0.24058
0.240497
0.240409
0.240317
0.240221
0.240119
0.240013
0.239901
0.239783
0.23966
0.23953
0.239394
0.239252
0.239102
0.238944
0.238779
0.238605
0.238423
0.241225
0.241174
0.24112
0.241063
0.241004
0.240942
0.240876
0.240808
0.240736
0.24066
0.24058
0.240497
0.240409
0.240317
0.240221
0.240119
0.240013
0.239901
0.239783
0.23966
0.23953
0.239394
0.239252
0.239102
0.238944
0.238779
0.238605
0.238423
0.241225
0.241174
0.24112
0.241063
0.241004
0.240942
0.240876
0.240808
0.240736
0.24066
0.24058
0.240497
0.240409
0.240317
0.240221
0.240119
0.240013
0.239901
0.239783
0.23966
0.23953
0.239394
0.239252
0.239102
0.238944
0.238779
0.238605
0.238423
0.241225
0.241174
0.24112
0.241063
0.241004
0.240942
0.240876
0.240808
0.240736
0.24066
0.24058
0.240497
0.240409
0.240317
0.240221
0.240119
0.240013
0.239901
0.239783
0.23966
0.23953
0.239394
0.239252
0.239102
0.238944
0.238779
0.238605
0.238423
0.286898
0.286941
0.286986
0.287033
0.287082
0.287134
0.287189
0.287246
0.287306
0.28737
0.287436
0.287506
0.287579
0.287656
0.287736
0.287821
0.28791
0.288003
0.288102
0.288204
0.288313
0.288426
0.288545
0.28867
0.288802
0.28894
0.289085
0.289237
0.286354
0.286397
0.286442
0.28649
0.286539
0.286592
0.286647
0.286705
0.286765
0.286829
0.286896
0.286966
0.28704
0.287117
0.287198
0.287284
0.287373
0.287467
0.287566
0.28767
0.287779
0.287893
0.288013
0.288139
0.288271
0.28841
0.288556
0.288709
0.285819
0.285862
0.285907
0.285955
0.286006
0.286058
0.286114
0.286172
0.286233
0.286297
0.286364
0.286435
0.286509
0.286587
0.286669
0.286755
0.286845
0.28694
0.287039
0.287143
0.287253
0.287368
0.287489
0.287616
0.287749
0.287889
0.288036
0.28819
0.285292
0.285336
0.285382
0.28543
0.28548
0.285533
0.285589
0.285648
0.285709
0.285774
0.285841
0.285912
0.285987
0.286065
0.286148
0.286234
0.286325
0.28642
0.28652
0.286625
0.286736
0.286852
0.286973
0.287101
0.287235
0.287376
0.287524
0.287679
0.284774
0.284818
0.284864
0.284913
0.284963
0.285017
0.285073
0.285132
0.285194
0.285258
0.285327
0.285398
0.285473
0.285552
0.285635
0.285722
0.285813
0.285909
0.28601
0.286115
0.286226
0.286343
0.286465
0.286594
0.286729
0.28687
0.287019
0.287175
0.284264
0.284309
0.284355
0.284404
0.284455
0.284509
0.284565
0.284624
0.284686
0.284751
0.28482
0.284892
0.284967
0.285047
0.28513
0.285218
0.285309
0.285406
0.285507
0.285613
0.285725
0.285842
0.285965
0.286094
0.28623
0.286372
0.286522
0.286679
0.283763
0.283807
0.283854
0.283903
0.283954
0.284008
0.284065
0.284124
0.284187
0.284252
0.284321
0.284394
0.284469
0.284549
0.284633
0.284721
0.284813
0.28491
0.285012
0.285119
0.285231
0.285349
0.285472
0.285602
0.285739
0.285882
0.286032
0.28619
0.283269
0.283313
0.28336
0.283409
0.283461
0.283515
0.283572
0.283632
0.283695
0.283761
0.28383
0.283903
0.283979
0.284059
0.284143
0.284232
0.284324
0.284422
0.284524
0.284632
0.284744
0.284863
0.284987
0.285118
0.285255
0.285399
0.28555
0.285708
0.282782
0.282827
0.282874
0.282924
0.282976
0.28303
0.283087
0.283147
0.28321
0.283277
0.283346
0.283419
0.283496
0.283576
0.283661
0.28375
0.283843
0.283941
0.284044
0.284152
0.284265
0.284384
0.284509
0.28464
0.284778
0.284922
0.285074
0.285234
0.241225
0.241174
0.24112
0.241063
0.241004
0.240942
0.240876
0.240808
0.240736
0.24066
0.24058
0.240497
0.240409
0.240317
0.240221
0.240119
0.240013
0.239901
0.239783
0.23966
0.23953
0.239394
0.239252
0.239102
0.238944
0.238779
0.238605
0.238423
0.241225
0.241174
0.24112
0.241063
0.241004
0.240942
0.240876
0.240808
0.240736
0.24066
0.24058
0.240497
0.240409
0.240317
0.240221
0.240119
0.240013
0.239901
0.239783
0.23966
0.23953
0.239394
0.239252
0.239102
0.238944
0.238779
0.238605
0.238423
0.246275
0.246326
0.24638
0.246437
0.246496
0.246558
0.246624
0.246692
0.246764
0.24684
0.24692
0.247003
0.247091
0.247183
0.247279
0.247381
0.247487
0.247599
0.247717
0.24784
0.24797
0.248106
0.248248
0.248398
0.248556
0.248721
0.248895
0.249077
0.246275
0.246326
0.24638
0.246437
0.246496
0.246558
0.246624
0.246692
0.246764
0.24684
0.24692
0.247003
0.247091
0.247183
0.247279
0.247381
0.247487
0.247599
0.247717
0.24784
0.24797
0.248106
0.248248
0.248398
0.248556
0.248721
0.248895
0.249077
0.246275
0.246326
0.24638
0.246437
0.246496
0.246558
0.246624
0.246692
0.246764
0.24684
0.24692
0.247003
0.247091
0.247183
0.247279
0.247381
0.247487
0.247599
0.247717
0.24784
0.24797
0.248106
0.248248
0.248398
0.248556
0.248721
0.248895
0.249077
0.246275
0.246326
0.24638
0.246437
0.246496
0.246558
0.246624
0.246692
0.246764
0.24684
0.24692
0.247003
0.247091
0.247183
0.247279
0.247381
0.247487
0.247599
0.247717
0.24784
0.24797
0.248106
0.248248
0.248398
0.248556
0.248721
0.248895
0.249077
0.246275
0.246326
0.24638
0.246437
0.246496
0.246558
0.246624
0.246692
0.246764
0.24684
0.24692
0.247003
0.247091
0.247183
0.247279
0.247381
0.247487
0.247599
0.247717
0.24784
0.24797
0.248106
0.248248
0.248398
0.248556
0.248721
0.248895
0.249077
0.246275
0.246326
0.24638
0.246437
0.246496
0.246558
0.246624
0.246692
0.246764
0.24684
0.24692
0.247003
0.247091
0.247183
0.247279
0.247381
0.247487
0.247599
0.247717
0.24784
0.24797
0.248106
0.248248
0.248398
0.248556
0.248721
0.248895
0.249077
0.246275
0.246326
0.24638
0.246437
0.246496
0.246558
0.246624
0.246692
0.246764
0.24684
0.24692
0.247003
0.247091
0.247183
0.247279
0.247381
0.247487
0.247599
0.247717
0.24784
0.24797
0.248106
0.248248
0.248398
0.248556
0.248721
0.248895
0.249077
0.246275
0.246326
0.24638
0.246437
0.246496
0.246558
0.246624
0.246692
0.246764
0.24684
0.24692
0.247003
0.247091
0.247183
0.247279
0.247381
0.247487
0.247599
0.247717
0.24784
0.24797
0.248106
0.248248
0.248398
0.248556
0.248721
0.248895
0.249077
0.246275
0.246326
0.24638
0.246437
0.246496
0.246558
0.246624
0.246692
0.246764
0.24684
0.24692
0.247003
0.247091
0.247183
0.247279
0.247381
0.247487
0.247599
0.247717
0.24784
0.24797
0.248106
0.248248
0.248398
0.248556
0.248721
0.248895
0.249077
0.246275
0.246326
0.24638
0.246437
0.246496
0.246558
0.246624
0.246692
0.246764
0.24684
0.24692
0.247003
0.247091
0.247183
0.247279
0.247381
0.247487
0.247599
0.247717
0.24784
0.24797
0.248106
0.248248
0.248398
0.248556
0.248721
0.248895
0.249077
0.246275
0.246326
0.24638
0.246437
0.246496
0.246558
0.246624
0.246692
0.246764
0.24684
0.24692
0.247003
0.247091
0.247183
0.247279
0.247381
0.247487
0.247599
0.247717
0.24784
0.24797
0.248106
0.248248
0.248398
0.248556
0.248721
0.248895
0.249077
0.241225
0.241174
0.24112
0.241063
0.241004
0.240942
0.240876
0.240808
0.240736
0.24066
0.24058
0.240497
0.240409
0.240317
0.240221
0.240119
0.240013
0.239901
0.239783
0.23966
0.23953
0.239394
0.239252
0.239102
0.238944
0.238779
0.238605
0.238423
0.241225
0.241174
0.24112
0.241063
0.241004
0.240942
0.240876
0.240808
0.240736
0.24066
0.24058
0.240497
0.240409
0.240317
0.240221
0.240119
0.240013
0.239901
0.239783
0.23966
0.23953
0.239394
0.239252
0.239102
0.238944
0.238779
0.238605
0.238423
0.241225
0.241174
0.24112
0.241063
0.241004
0.240942
0.240876
0.240808
0.240736
0.24066
0.24058
0.240497
0.240409
0.240317
0.240221
0.240119
0.240013
0.239901
0.239783
0.23966
0.23953
0.239394
0.239252
0.239102
0.238944
0.238779
0.238605
0.238423
0.241225
0.241174
0.24112
0.241063
0.241004
0.240942
0.240876
0.240808
0.240736
0.24066
0.24058
0.240497
0.240409
0.240317
0.240221
0.240119
0.240013
0.239901
0.239783
0.23966
0.23953
0.239394
0.239252
0.239102
0.238944
0.238779
0.238605
0.238423
0.241225
0.241174
0.24112
0.241063
0.241004
0.240942
0.240876
0.240808
0.240736
0.24066
0.24058
0.240497
0.240409
0.240317
0.240221
0.240119
0.240013
0.239901
0.239783
0.23966
0.23953
0.239394
0.239252
0.239102
0.238944
0.238779
0.238605
0.238423
0.241225
0.241174
0.24112
0.241063
0.241004
0.240942
0.240876
0.240808
0.240736
0.24066
0.24058
0.240497
0.240409
0.240317
0.240221
0.240119
0.240013
0.239901
0.239783
0.23966
0.23953
0.239394
0.239252
0.239102
0.238944
0.238779
0.238605
0.238423
0.241225
0.241174
0.24112
0.241063
0.241004
0.240942
0.240876
0.240808
0.240736
0.24066
0.24058
0.240497
0.240409
0.240317
0.240221
0.240119
0.240013
0.239901
0.239783
0.23966
0.23953
0.239394
0.239252
0.239102
0.238944
0.238779
0.238605
0.238423
0.241225
0.241174
0.24112
0.241063
0.241004
0.240942
0.240876
0.240808
0.240736
0.24066
0.24058
0.240497
0.240409
0.240317
0.240221
0.240119
0.240013
0.239901
0.239783
0.23966
0.23953
0.239394
0.239252
0.239102
0.238944
0.238779
0.238605
0.238423
0.241225
0.241174
0.24112
0.241063
0.241004
0.240942
0.240876
0.240808
0.240736
0.24066
0.24058
0.240497
0.240409
0.240317
0.240221
0.240119
0.240013
0.239901
0.239783
0.23966
0.23953
0.239394
0.239252
0.239102
0.238944
0.238779
0.238605
0.238423
0.241225
0.241174
0.24112
0.241063
0.241004
0.240942
0.240876
0.240808
0.240736
0.24066
0.24058
0.240497
0.240409
0.240317
0.240221
0.240119
0.240013
0.239901
0.239783
0.23966
0.23953
0.239394
0.239252
0.239102
0.238944
0.238779
0.238605
0.238423
0.241225
0.241174
0.24112
0.241063
0.241004
0.240942
0.240876
0.240808
0.240736
0.24066
0.24058
0.240497
0.240409
0.240317
0.240221
0.240119
0.240013
0.239901
0.239783
0.23966
0.23953
0.239394
0.239252
0.239102
0.238944
0.238779
0.238605
0.238423
0.241225
0.241174
0.24112
0.241063
0.241004
0.240942
0.240876
0.240808
0.240736
0.24066
0.24058
0.240497
0.240409
0.240317
0.240221
0.240119
0.240013
0.239901
0.239783
0.23966
0.23953
0.239394
0.239252
0.239102
0.238944
0.238779
0.238605
0.238423
0.241225
0.241174
0.24112
0.241063
0.241004
0.240942
0.240876
0.240808
0.240736
0.24066
0.24058
0.240497
0.240409
0.240317
0.240221
0.240119
0.240013
0.239901
0.239783
0.23966
0.23953
0.239394
0.239252
0.239102
0.238944
0.238779
0.238605
0.238423
0.241225
0.241174
0.24112
0.241063
0.241004
0.240942
0.240876
0.240808
0.240736
0.24066
0.24058
0.240497
0.240409
0.240317
0.240221
0.240119
0.240013
0.239901
0.239783
0.23966
0.23953
0.239394
0.239252
0.239102
0.238944
0.238779
0.238605
0.238423
0.241225
0.241174
0.24112
0.241063
0.241004
0.240942
0.240876
0.240808
0.240736
0.24066
0.24058
0.240497
0.240409
0.240317
0.240221
0.240119
0.240013
0.239901
0.239783
0.23966
0.23953
0.239394
0.239252
0.239102
0.238944
0.238779
0.238605
0.238423
0.241225
0.241174
0.24112
0.241063
0.241004
0.240942
0.240876
0.240808
0.240736
0.24066
0.24058
0.240497
0.240409
0.240317
0.240221
0.240119
0.240013
0.239901
0.239783
0.23966
0.23953
0.239394
0.239252
0.239102
0.238944
0.238779
0.238605
0.238423
0.241225
0.241174
0.24112
0.241063
0.241004
0.240942
0.240876
0.240808
0.240736
0.24066
0.24058
0.240497
0.240409
0.240317
0.240221
0.240119
0.240013
0.239901
0.239783
0.23966
0.23953
0.239394
0.239252
0.239102
0.238944
0.238779
0.238605
0.238423
0.241225
0.241174
0.24112
0.241063
0.241004
0.240942
0.240876
0.240808
0.240736
0.24066
0.24058
0.240497
0.240409
0.240317
0.240221
0.240119
0.240013
0.239901
0.239783
0.23966
0.23953
0.239394
0.239252
0.239102
0.238944
0.238779
0.238605
0.238423
0.241225
0.241174
0.24112
0.241063
0.241004
0.240942
0.240876
0.240808
0.240736
0.24066
0.24058
0.240497
0.240409
0.240317
0.240221
0.240119
0.240013
0.239901
0.239783
0.23966
0.23953
0.239394
0.239252
0.239102
0.238944
0.238779
0.238605
0.238423
0.241225
0.241174
0.24112
0.241063
0.241004
0.240942
0.240876
0.240808
0.240736
0.24066
0.24058
0.240497
0.240409
0.240317
0.240221
0.240119
0.240013
0.239901
0.239783
0.23966
0.23953
0.239394
0.239252
0.239102
0.238944
0.238779
0.238605
0.238423
0.241225
0.241174
0.24112
0.241063
0.241004
0.240942
0.240876
0.240808
0.240736
0.24066
0.24058
0.240497
0.240409
0.240317
0.240221
0.240119
0.240013
0.239901
0.239783
0.23966
0.23953
0.239394
0.239252
0.239102
0.238944
0.238779
0.238605
0.238423
0.241225
0.241174
0.24112
0.241063
0.241004
0.240942
0.240876
0.240808
0.240736
0.24066
0.24058
0.240497
0.240409
0.240317
0.240221
0.240119
0.240013
0.239901
0.239783
0.23966
0.23953
0.239394
0.239252
0.239102
0.238944
0.238779
0.238605
0.238423
0.241225
0.241174
0.24112
0.241063
0.241004
0.240942
0.240876
0.240808
0.240736
0.24066
0.24058
0.240497
0.240409
0.240317
0.240221
0.240119
0.240013
0.239901
0.239783
0.23966
0.23953
0.239394
0.239252
0.239102
0.238944
0.238779
0.238605
0.238423
0.241225
0.241174
0.24112
0.241063
0.241004
0.240942
0.240876
0.240808
0.240736
0.24066
0.24058
0.240497
0.240409
0.240317
0.240221
0.240119
0.240013
0.239901
0.239783
0.23966
0.23953
0.239394
0.239252
0.239102
0.238944
0.238779
0.238605
0.238423
0.313126
0.313125
0.313124
0.313123
0.313122
0.313121
0.31312
0.313119
0.313118
0.313116
0.313115
0.313114
0.313112
0.313111
0.313109
0.313107
0.313106
0.313104
0.313102
0.3131
0.313098
0.313095
0.313093
0.31309
0.313088
0.313085
0.313082
0.313079
0.314116
0.314119
0.314122
0.314125
0.314129
0.314132
0.314136
0.31414
0.314144
0.314148
0.314152
0.314157
0.314162
0.314167
0.314172
0.314178
0.314184
0.31419
0.314196
0.314203
0.31421
0.314218
0.314226
0.314234
0.314243
0.314252
0.314262
0.314272
0.315094
0.315102
0.31511
0.315118
0.315127
0.315136
0.315145
0.315155
0.315166
0.315177
0.315189
0.315201
0.315214
0.315227
0.315241
0.315256
0.315272
0.315288
0.315305
0.315323
0.315342
0.315362
0.315383
0.315405
0.315428
0.315453
0.315478
0.315505
0.316058
0.31607
0.316083
0.316097
0.316112
0.316127
0.316143
0.316159
0.316177
0.316195
0.316214
0.316235
0.316256
0.316278
0.316302
0.316326
0.316352
0.316379
0.316408
0.316438
0.316469
0.316502
0.316537
0.316573
0.316612
0.316652
0.316694
0.316738
0.316998
0.317016
0.317034
0.317053
0.317073
0.317094
0.317116
0.317139
0.317163
0.317189
0.317215
0.317243
0.317273
0.317304
0.317336
0.317371
0.317406
0.317444
0.317484
0.317525
0.317569
0.317615
0.317663
0.317713
0.317766
0.317822
0.31788
0.317942
0.317906
0.317928
0.317951
0.317975
0.318
0.318027
0.318055
0.318084
0.318115
0.318148
0.318182
0.318217
0.318255
0.318294
0.318335
0.318379
0.318424
0.318472
0.318522
0.318575
0.31863
0.318688
0.318749
0.318814
0.318881
0.318951
0.319026
0.319103
0.318773
0.318799
0.318827
0.318856
0.318886
0.318918
0.318952
0.318987
0.319024
0.319063
0.319104
0.319147
0.319192
0.319239
0.319289
0.319341
0.319396
0.319453
0.319514
0.319577
0.319644
0.319713
0.319787
0.319864
0.319945
0.32003
0.320119
0.320213
0.31959
0.31962
0.319652
0.319686
0.319721
0.319758
0.319797
0.319838
0.319881
0.319926
0.319974
0.320023
0.320076
0.32013
0.320188
0.320248
0.320312
0.320378
0.320448
0.320522
0.320599
0.32068
0.320765
0.320854
0.320948
0.321046
0.32115
0.321258
0.320349
0.320384
0.32042
0.320458
0.320498
0.320539
0.320583
0.320629
0.320678
0.320729
0.320782
0.320838
0.320897
0.320959
0.321024
0.321092
0.321163
0.321238
0.321317
0.3214
0.321487
0.321578
0.321674
0.321775
0.321881
0.321992
0.322108
0.322231
0.241225
0.241174
0.24112
0.241063
0.241004
0.240942
0.240876
0.240808
0.240736
0.24066
0.24058
0.240497
0.240409
0.240317
0.240221
0.240119
0.240013
0.239901
0.239783
0.23966
0.23953
0.239394
0.239252
0.239102
0.238944
0.238779
0.238605
0.238423
0.241225
0.241174
0.24112
0.241063
0.241004
0.240942
0.240876
0.240808
0.240736
0.24066
0.24058
0.240497
0.240409
0.240317
0.240221
0.240119
0.240013
0.239901
0.239783
0.23966
0.23953
0.239394
0.239252
0.239102
0.238944
0.238779
0.238605
0.238423
0.241225
0.241174
0.24112
0.241063
0.241004
0.240942
0.240876
0.240808
0.240736
0.24066
0.24058
0.240497
0.240409
0.240317
0.240221
0.240119
0.240013
0.239901
0.239783
0.23966
0.23953
0.239394
0.239252
0.239102
0.238944
0.238779
0.238605
0.238423
0.241225
0.241174
0.24112
0.241063
0.241004
0.240942
0.240876
0.240808
0.240736
0.24066
0.24058
0.240497
0.240409
0.240317
0.240221
0.240119
0.240013
0.239901
0.239783
0.23966
0.23953
0.239394
0.239252
0.239102
0.238944
0.238779
0.238605
0.238423
0.241225
0.241174
0.24112
0.241063
0.241004
0.240942
0.240876
0.240808
0.240736
0.24066
0.24058
0.240497
0.240409
0.240317
0.240221
0.240119
0.240013
0.239901
0.239783
0.23966
0.23953
0.239394
0.239252
0.239102
0.238944
0.238779
0.238605
0.238423
0.241225
0.241174
0.24112
0.241063
0.241004
0.240942
0.240876
0.240808
0.240736
0.24066
0.24058
0.240497
0.240409