/*--------------------------------*- C++ -*----------------------------------*\
| =========                 |                                                 |
| \\      /  F ield         | OpenFOAM: The Open Source CFD Toolbox           |
|  \\    /   O peration     | Version:  2412                                  |
|   \\  /    A nd           | Website:  www.openfoam.com                      |
|    \\/     M anipulation  |                                                 |
\*---------------------------------------------------------------------------*/
FoamFile
{
    version     2.0;
    format      ascii;
    arch        "LSB;label=32;scalar=64";
    class       volScalarField;
    location    "4000";
    object      p;
}
// * * * * * * * * * * * * * * * * * * * * * * * * * * * * * * * * * * * * * //

dimensions      [0 2 -2 0 0 0 0];

internalField   nonuniform List<scalar> 
360650
(
-4.22758
-4.22759
-4.2276
-4.22761
-4.22762
-4.22764
-4.22767
-4.2277
-4.22775
-4.22781
-4.22788
-4.22798
-4.2281
-4.22825
-4.22843
-4.22865
-4.22893
-4.22925
-4.22964
-4.23011
-4.23066
-4.2313
-4.23206
-4.23294
-4.23396
-4.23515
-4.23648
-4.23829
-4.21969
-4.2197
-4.21971
-4.21972
-4.21974
-4.21976
-4.21978
-4.21981
-4.21985
-4.2199
-4.21996
-4.22004
-4.22014
-4.22026
-4.22041
-4.22059
-4.22081
-4.22106
-4.22136
-4.22172
-4.22212
-4.2226
-4.22314
-4.22375
-4.22444
-4.2252
-4.22608
-4.22712
-4.21201
-4.21201
-4.21202
-4.21203
-4.21205
-4.21207
-4.21209
-4.21212
-4.21216
-4.21221
-4.21228
-4.21237
-4.21247
-4.2126
-4.21276
-4.21295
-4.21319
-4.21346
-4.21379
-4.21418
-4.21463
-4.21514
-4.21574
-4.21642
-4.21718
-4.21802
-4.21898
-4.21993
-4.20436
-4.20437
-4.20438
-4.20439
-4.20441
-4.20442
-4.20445
-4.20448
-4.20452
-4.20457
-4.20464
-4.20473
-4.20483
-4.20497
-4.20513
-4.20533
-4.20557
-4.20585
-4.2062
-4.2066
-4.20708
-4.20765
-4.2083
-4.20907
-4.20996
-4.21099
-4.21218
-4.21349
-4.19688
-4.19689
-4.1969
-4.19691
-4.19692
-4.19694
-4.19696
-4.19699
-4.19703
-4.19708
-4.19714
-4.19722
-4.19731
-4.19743
-4.19758
-4.19775
-4.19796
-4.19822
-4.19851
-4.19886
-4.19927
-4.19974
-4.20028
-4.2009
-4.20161
-4.20241
-4.20329
-4.20421
-4.18964
-4.18965
-4.18965
-4.18966
-4.18968
-4.18969
-4.18972
-4.18975
-4.18978
-4.18983
-4.18989
-4.18997
-4.19007
-4.19019
-4.19034
-4.19053
-4.19075
-4.19101
-4.19132
-4.19168
-4.19211
-4.19261
-4.19318
-4.19383
-4.19457
-4.1954
-4.1963
-4.19732
-4.18241
-4.18242
-4.18243
-4.18244
-4.18245
-4.18247
-4.18249
-4.18252
-4.18256
-4.18262
-4.18269
-4.18277
-4.18288
-4.18302
-4.18319
-4.18339
-4.18364
-4.18393
-4.18429
-4.18471
-4.18521
-4.1858
-4.18648
-4.18727
-4.18819
-4.18924
-4.1904
-4.19184
-4.17543
-4.17543
-4.17544
-4.17546
-4.17547
-4.17549
-4.17551
-4.17554
-4.17558
-4.17563
-4.1757
-4.17579
-4.17589
-4.17603
-4.17619
-4.17639
-4.17663
-4.17693
-4.17728
-4.1777
-4.1782
-4.17879
-4.17948
-4.1803
-4.18126
-4.18237
-4.18371
-4.18543
-4.16827
-4.16828
-4.16829
-4.1683
-4.16831
-4.16833
-4.16835
-4.16837
-4.16841
-4.16845
-4.1685
-4.16857
-4.16865
-4.16876
-4.16888
-4.16903
-4.16921
-4.16942
-4.16967
-4.16996
-4.17029
-4.17067
-4.1711
-4.17158
-4.17212
-4.1727
-4.17337
-4.17388
-4.16186
-4.16187
-4.16188
-4.16189
-4.1619
-4.16191
-4.16194
-4.16196
-4.162
-4.16205
-4.16211
-4.16219
-4.16228
-4.1624
-4.16255
-4.16272
-4.16294
-4.16319
-4.16349
-4.16385
-4.16427
-4.16475
-4.16531
-4.16594
-4.16666
-4.16747
-4.16833
-4.16916
-4.155
-4.15501
-4.15502
-4.15503
-4.15504
-4.15506
-4.15508
-4.15511
-4.15515
-4.15519
-4.15525
-4.15533
-4.15543
-4.15555
-4.1557
-4.15588
-4.1561
-4.15636
-4.15668
-4.15706
-4.1575
-4.15803
-4.15865
-4.15938
-4.16024
-4.16123
-4.16237
-4.16383
-168.036
-168.037
-168.037
-168.038
-168.039
-168.041
-168.043
-168.046
-168.049
-168.054
-168.059
-168.065
-168.072
-168.08
-168.089
-168.1
-168.112
-168.126
-168.143
-168.161
-168.181
-168.205
-168.231
-168.26
-168.292
-168.328
-168.368
-168.414
-170.012
-170.012
-170.013
-170.014
-170.015
-170.017
-170.019
-170.023
-170.027
-170.031
-170.037
-170.044
-170.052
-170.061
-170.072
-170.084
-170.097
-170.113
-170.13
-170.15
-170.173
-170.198
-170.226
-170.258
-170.293
-170.332
-170.374
-170.424
-171.926
-171.927
-171.927
-171.928
-171.93
-171.932
-171.935
-171.939
-171.944
-171.95
-171.957
-171.966
-171.975
-171.986
-171.998
-172.012
-172.027
-172.044
-172.063
-172.085
-172.109
-172.136
-172.165
-172.198
-172.234
-172.275
-172.318
-172.36
-173.754
-173.754
-173.754
-173.755
-173.757
-173.76
-173.763
-173.768
-173.774
-173.781
-173.789
-173.799
-173.81
-173.823
-173.838
-173.855
-173.873
-173.894
-173.918
-173.945
-173.974
-174.008
-174.045
-174.086
-174.132
-174.184
-174.242
-174.304
-175.476
-175.476
-175.476
-175.477
-175.479
-175.481
-175.485
-175.49
-175.496
-175.503
-175.512
-175.522
-175.534
-175.548
-175.564
-175.582
-175.602
-175.625
-175.651
-175.68
-175.713
-175.749
-175.79
-175.834
-175.884
-175.938
-175.999
-176.063
-177.074
-177.074
-177.074
-177.075
-177.077
-177.079
-177.083
-177.087
-177.093
-177.1
-177.108
-177.118
-177.13
-177.144
-177.16
-177.178
-177.198
-177.222
-177.248
-177.277
-177.31
-177.346
-177.387
-177.432
-177.481
-177.535
-177.595
-177.659
-95.5744
-95.574
-95.5741
-95.5745
-95.5755
-95.577
-95.579
-95.5814
-95.5842
-95.5876
-95.5919
-95.598
-95.6068
-95.6188
-95.6343
-95.654
-95.6785
-95.7081
-95.7437
-95.7864
-95.8358
-95.8864
-95.9369
-95.9922
-96.0513
-96.1184
-96.1779
-96.252
-95.0302
-95.0298
-95.0298
-95.0305
-95.032
-95.0347
-95.0392
-95.0458
-95.0546
-95.0657
-95.0795
-95.0977
-95.1218
-95.1526
-95.1904
-95.236
-95.2894
-95.3515
-95.423
-95.5034
-95.5925
-95.6905
-95.7973
-95.9092
-96.0246
-96.1439
-96.2474
-96.3748
-94.3081
-94.3079
-94.3076
-94.3083
-94.3113
-94.3189
-94.3329
-94.3547
-94.384
-94.4185
-94.4562
-94.5
-94.5539
-94.6179
-94.6932
-94.7813
-94.8808
-94.9934
-95.1215
-95.2636
-95.4184
-95.584
-95.758
-95.9379
-96.1208
-96.3056
-96.4723
-96.6657
-93.5526
-93.5547
-93.557
-93.5628
-93.5769
-93.6042
-93.6486
-93.7119
-93.7923
-93.8826
-93.9761
-94.0779
-94.1938
-94.3203
-94.4567
-94.6039
-94.7605
-94.9292
-95.1139
-95.3133
-95.5261
-95.7533
-95.9925
-96.2382
-96.4896
-96.7419
-96.9762
-97.2465
-93.9682
-93.9747
-93.9813
-93.9908
-94.0081
-94.0371
-94.0804
-94.1407
-94.2206
-94.3225
-94.4486
-94.5976
-94.7644
-94.9406
-95.1165
-95.2883
-95.4595
-95.6395
-95.8355
-96.0463
-96.2713
-96.513
-96.7668
-97.0264
-97.2913
-97.5543
-97.8017
-98.0825
-143.017
-143.018
-143.019
-143.02
-143.022
-143.025
-143.031
-143.038
-143.048
-143.062
-143.08
-143.104
-143.133
-143.17
-143.213
-143.264
-143.324
-143.392
-143.469
-143.555
-143.653
-143.764
-143.891
-144.029
-144.182
-144.305
-144.423
-144.501
-142.728
-142.729
-142.73
-142.731
-142.732
-142.733
-142.734
-142.734
-142.732
-142.728
-142.722
-142.713
-142.699
-142.681
-142.657
-142.625
-142.585
-142.536
-142.477
-142.405
-142.321
-142.225
-142.109
-141.963
-141.802
-141.627
-141.429
-141.264
-142.117
-142.117
-142.117
-142.117
-142.116
-142.114
-142.112
-142.107
-142.099
-142.087
-142.069
-142.045
-142.013
-141.971
-141.917
-141.85
-141.767
-141.667
-141.546
-141.399
-141.222
-141.014
-140.759
-140.448
-140.09
-139.711
-139.287
-138.947
-141.292
-141.291
-141.29
-141.288
-141.286
-141.283
-141.279
-141.274
-141.267
-141.258
-141.245
-141.23
-141.21
-141.186
-141.157
-141.12
-141.077
-141.022
-140.948
-140.854
-140.749
-140.628
-140.483
-140.329
-140.168
-139.997
-139.843
-139.667
-140.794
-140.794
-140.793
-140.791
-140.79
-140.787
-140.785
-140.782
-140.779
-140.775
-140.771
-140.767
-140.762
-140.756
-140.749
-140.74
-140.728
-140.712
-140.682
-140.643
-140.611
-140.58
-140.54
-140.493
-140.44
-140.389
-140.326
-140.263
-140.531
-140.531
-140.53
-140.529
-140.528
-140.527
-140.526
-140.526
-140.526
-140.528
-140.53
-140.535
-140.541
-140.55
-140.562
-140.577
-140.595
-140.617
-140.647
-140.683
-140.721
-140.761
-140.807
-140.857
-140.903
-140.957
-140.994
-141.035
-143.737
-143.738
-143.739
-143.739
-143.74
-143.741
-143.742
-143.743
-143.745
-143.747
-143.749
-143.752
-143.755
-143.758
-143.762
-143.767
-143.772
-143.778
-143.785
-143.793
-143.802
-143.813
-143.825
-143.839
-143.855
-143.872
-143.892
-143.923
-145.876
-145.877
-145.878
-145.878
-145.879
-145.879
-145.88
-145.882
-145.883
-145.885
-145.887
-145.89
-145.893
-145.897
-145.901
-145.906
-145.911
-145.917
-145.924
-145.932
-145.941
-145.951
-145.962
-145.975
-145.99
-146.007
-146.023
-146.048
-148.066
-148.067
-148.067
-148.068
-148.068
-148.069
-148.07
-148.071
-148.073
-148.075
-148.077
-148.08
-148.084
-148.088
-148.092
-148.098
-148.103
-148.109
-148.116
-148.124
-148.132
-148.142
-148.152
-148.163
-148.176
-148.191
-148.207
-148.221
-150.305
-150.306
-150.306
-150.307
-150.307
-150.308
-150.31
-150.311
-150.313
-150.315
-150.318
-150.322
-150.326
-150.331
-150.337
-150.344
-150.351
-150.36
-150.369
-150.38
-150.392
-150.404
-150.419
-150.434
-150.452
-150.47
-150.492
-150.519
-152.578
-152.578
-152.579
-152.579
-152.58
-152.581
-152.582
-152.584
-152.586
-152.589
-152.592
-152.596
-152.601
-152.607
-152.613
-152.621
-152.63
-152.641
-152.653
-152.666
-152.681
-152.697
-152.715
-152.735
-152.757
-152.781
-152.808
-152.841
-154.874
-154.874
-154.875
-154.875
-154.876
-154.878
-154.879
-154.881
-154.884
-154.887
-154.891
-154.896
-154.902
-154.909
-154.917
-154.926
-154.937
-154.95
-154.964
-154.981
-154.999
-155.02
-155.044
-155.069
-155.098
-155.129
-155.163
-155.213
-135.296
-135.296
-135.296
-135.296
-135.295
-135.295
-135.295
-135.295
-135.296
-135.298
-135.3
-135.303
-135.305
-135.307
-135.309
-135.31
-135.311
-135.31
-135.307
-135.303
-135.297
-135.289
-135.279
-135.267
-135.252
-135.234
-135.212
-135.172
-135.961
-135.962
-135.962
-135.962
-135.962
-135.962
-135.963
-135.963
-135.964
-135.965
-135.967
-135.968
-135.969
-135.97
-135.97
-135.969
-135.967
-135.965
-135.961
-135.955
-135.949
-135.941
-135.931
-135.921
-135.909
-135.897
-135.884
-135.868
-136.609
-136.609
-136.61
-136.61
-136.611
-136.611
-136.611
-136.611
-136.611
-136.611
-136.611
-136.611
-136.609
-136.608
-136.605
-136.601
-136.597
-136.59
-136.583
-136.573
-136.561
-136.548
-136.534
-136.518
-136.5
-136.482
-136.465
-136.449
-137.346
-137.346
-137.347
-137.347
-137.347
-137.347
-137.347
-137.347
-137.346
-137.344
-137.342
-137.34
-137.336
-137.331
-137.325
-137.317
-137.308
-137.297
-137.285
-137.27
-137.254
-137.236
-137.216
-137.195
-137.172
-137.147
-137.122
-137.09
-138.081
-138.081
-138.082
-138.082
-138.082
-138.082
-138.082
-138.081
-138.08
-138.078
-138.074
-138.07
-138.065
-138.058
-138.05
-138.04
-138.028
-138.015
-138
-137.984
-137.966
-137.947
-137.926
-137.904
-137.882
-137.859
-137.835
-137.813
-138.863
-138.863
-138.863
-138.864
-138.864
-138.864
-138.863
-138.862
-138.86
-138.857
-138.852
-138.846
-138.839
-138.83
-138.819
-138.806
-138.791
-138.775
-138.756
-138.736
-138.714
-138.691
-138.667
-138.641
-138.615
-138.589
-138.562
-138.538
-139.657
-139.657
-139.657
-139.658
-139.658
-139.657
-139.657
-139.655
-139.653
-139.649
-139.644
-139.637
-139.628
-139.618
-139.605
-139.59
-139.573
-139.554
-139.533
-139.511
-139.487
-139.462
-139.437
-139.41
-139.383
-139.355
-139.329
-139.299
-4.02544
-4.02544
-4.02544
-4.02544
-4.02544
-4.02544
-4.02545
-4.02546
-4.02548
-4.0255
-4.02553
-4.02558
-4.02563
-4.02571
-4.0258
-4.02591
-4.02606
-4.02623
-4.02645
-4.0267
-4.02701
-4.02737
-4.02779
-4.02829
-4.02887
-4.02956
-4.03024
-4.03122
-4.02441
-4.02441
-4.02441
-4.02441
-4.02441
-4.02441
-4.02442
-4.02443
-4.02444
-4.02446
-4.02449
-4.02453
-4.02459
-4.02465
-4.02474
-4.02485
-4.02498
-4.02514
-4.02535
-4.02559
-4.0259
-4.02627
-4.02672
-4.02727
-4.02792
-4.02868
-4.02959
-4.03094
-4.0238
-4.0238
-4.0238
-4.0238
-4.02379
-4.02379
-4.02379
-4.0238
-4.0238
-4.02381
-4.02383
-4.02384
-4.02387
-4.0239
-4.02394
-4.02398
-4.02404
-4.0241
-4.02418
-4.02427
-4.02439
-4.02454
-4.02473
-4.02498
-4.02529
-4.02564
-4.02605
-4.02619
-4.02339
-4.02338
-4.02338
-4.02337
-4.02337
-4.02337
-4.02337
-4.02337
-4.02338
-4.02339
-4.0234
-4.02342
-4.02345
-4.02349
-4.02354
-4.0236
-4.02368
-4.02377
-4.02389
-4.02402
-4.02418
-4.02437
-4.02459
-4.02485
-4.02514
-4.02547
-4.02582
-4.0262
-4.02299
-4.02299
-4.02298
-4.02297
-4.02297
-4.02296
-4.02296
-4.02296
-4.02296
-4.02296
-4.02297
-4.02298
-4.023
-4.02302
-4.02305
-4.02309
-4.02313
-4.0232
-4.02327
-4.02336
-4.02347
-4.02361
-4.02377
-4.02395
-4.02417
-4.02443
-4.02473
-4.02508
-4.02284
-4.02284
-4.02283
-4.02282
-4.02281
-4.0228
-4.0228
-4.02279
-4.02279
-4.02279
-4.02279
-4.02279
-4.0228
-4.02282
-4.02284
-4.02287
-4.02291
-4.02295
-4.02301
-4.02308
-4.02317
-4.02328
-4.0234
-4.02354
-4.02369
-4.02387
-4.02406
-4.02427
-4.02211
-4.0221
-4.02209
-4.02208
-4.02208
-4.02207
-4.02206
-4.02206
-4.02206
-4.02206
-4.02206
-4.02206
-4.02208
-4.02209
-4.02212
-4.02215
-4.02219
-4.02225
-4.02232
-4.02241
-4.02252
-4.02266
-4.02283
-4.02302
-4.02326
-4.02354
-4.02387
-4.02423
-4.02142
-4.02142
-4.02141
-4.0214
-4.02139
-4.02139
-4.02138
-4.02138
-4.02138
-4.02137
-4.02138
-4.02138
-4.02139
-4.02141
-4.02143
-4.02146
-4.0215
-4.02155
-4.02161
-4.02169
-4.02179
-4.02191
-4.02206
-4.02223
-4.02244
-4.02268
-4.02296
-4.02323
-4.02035
-4.02034
-4.02034
-4.02033
-4.02032
-4.02032
-4.02031
-4.02031
-4.0203
-4.0203
-4.0203
-4.02031
-4.02031
-4.02033
-4.02035
-4.02037
-4.02041
-4.02046
-4.02052
-4.0206
-4.02069
-4.02081
-4.02095
-4.02113
-4.02134
-4.02155
-4.02181
-4.02213
-4.01905
-4.01904
-4.01903
-4.01903
-4.01902
-4.01901
-4.01901
-4.01901
-4.01901
-4.01901
-4.01901
-4.01902
-4.01903
-4.01905
-4.01907
-4.0191
-4.01914
-4.0192
-4.01926
-4.01935
-4.01945
-4.01958
-4.01974
-4.01998
-4.02023
-4.02043
-4.0206
-4.02078
-4.01779
-4.01779
-4.01778
-4.01777
-4.01777
-4.01776
-4.01776
-4.01776
-4.01776
-4.01777
-4.01778
-4.0178
-4.01782
-4.01786
-4.0179
-4.01796
-4.01804
-4.01815
-4.01828
-4.01844
-4.01865
-4.01895
-4.01941
-4.02002
-4.02075
-4.02157
-4.02254
-4.02359
-95.2527
-95.2534
-95.2541
-95.2546
-95.2552
-95.2562
-95.2578
-95.2603
-95.2639
-95.269
-95.2755
-95.2834
-95.2925
-95.3026
-95.3134
-95.3243
-95.3349
-95.3445
-95.3529
-95.3603
-95.367
-95.3729
-95.3775
-95.3806
-95.3802
-95.3797
-95.3625
-95.3678
-95.6006
-95.6015
-95.6024
-95.6029
-95.6036
-95.6045
-95.606
-95.6084
-95.6116
-95.616
-95.6215
-95.6279
-95.6352
-95.6432
-95.6516
-95.6602
-95.6691
-95.6779
-95.6867
-95.6951
-95.703
-95.71
-95.7162
-95.7208
-95.7232
-95.7268
-95.718
-95.737
-96.0926
-96.0937
-96.095
-96.096
-96.0972
-96.0985
-96.1003
-96.1024
-96.1051
-96.1083
-96.1119
-96.1156
-96.1191
-96.1221
-96.1243
-96.1258
-96.1264
-96.1263
-96.1255
-96.1241
-96.1221
-96.1195
-96.1162
-96.1114
-96.1058
-96.102
-96.0896
-96.113
-96.7525
-96.7538
-96.7555
-96.7572
-96.7589
-96.7603
-96.7612
-96.7616
-96.7611
-96.7596
-96.7566
-96.7516
-96.7442
-96.7341
-96.7213
-96.706
-96.6887
-96.6695
-96.6485
-96.6256
-96.6007
-96.5734
-96.5446
-96.5136
-96.4821
-96.4491
-96.4079
-96.3984
-97.3195
-97.32
-97.3215
-97.3235
-97.3257
-97.3278
-97.3295
-97.3298
-97.3284
-97.3253
-97.3192
-97.309
-97.2938
-97.2736
-97.2483
-97.2175
-97.1821
-97.1428
-97.0999
-97.0536
-97.0039
-96.9508
-96.8954
-96.8353
-96.7738
-96.7053
-96.6387
-96.5894
-6.21825
-6.21819
-6.21813
-6.21808
-6.21805
-6.21804
-6.21807
-6.21816
-6.21834
-6.21865
-6.21912
-6.21983
-6.22085
-6.22227
-6.22421
-6.22678
-6.23014
-6.23447
-6.23992
-6.24671
-6.25502
-6.26506
-6.27702
-6.29108
-6.30743
-6.32619
-6.34779
-6.37122
-6.24042
-6.24036
-6.2403
-6.24025
-6.24022
-6.24022
-6.24026
-6.24036
-6.24056
-6.24089
-6.2414
-6.24215
-6.24321
-6.24469
-6.24667
-6.2493
-6.25271
-6.25706
-6.26252
-6.26927
-6.27749
-6.28735
-6.29905
-6.31273
-6.32856
-6.34668
-6.36722
-6.38996
-6.26263
-6.26258
-6.26252
-6.26247
-6.26244
-6.26245
-6.2625
-6.26262
-6.26284
-6.2632
-6.26374
-6.26454
-6.26566
-6.26719
-6.26925
-6.27195
-6.27543
-6.27985
-6.28536
-6.29213
-6.30034
-6.31014
-6.3217
-6.33516
-6.35068
-6.36832
-6.38833
-6.41073
-6.28337
-6.28331
-6.28325
-6.28321
-6.28319
-6.2832
-6.28326
-6.2834
-6.28364
-6.28403
-6.28461
-6.28545
-6.28663
-6.28822
-6.29035
-6.29313
-6.29669
-6.30118
-6.30676
-6.31358
-6.32182
-6.33163
-6.34316
-6.35657
-6.37199
-6.38953
-6.40948
-6.43111
-6.3036
-6.30354
-6.30348
-6.30345
-6.30343
-6.30345
-6.30352
-6.30367
-6.30393
-6.30435
-6.30496
-6.30583
-6.30705
-6.30869
-6.31086
-6.31368
-6.31727
-6.32178
-6.32735
-6.33414
-6.34229
-6.35197
-6.3633
-6.37644
-6.3915
-6.40862
-6.42785
-6.44935
-6.32251
-6.32246
-6.32241
-6.32237
-6.32236
-6.32238
-6.32247
-6.32263
-6.32291
-6.32335
-6.32399
-6.3249
-6.32615
-6.32783
-6.33004
-6.33289
-6.3365
-6.34102
-6.34658
-6.35331
-6.36138
-6.37091
-6.38203
-6.39488
-6.40957
-6.42616
-6.4449
-6.46579
-6.34057
-6.34051
-6.34046
-6.34043
-6.34042
-6.34046
-6.34055
-6.34073
-6.34102
-6.34148
-6.34214
-6.34308
-6.34436
-6.34607
-6.3483
-6.35117
-6.35479
-6.3593
-6.36481
-6.37148
-6.37943
-6.38878
-6.39968
-6.41222
-6.42652
-6.44265
-6.4609
-6.48071
-6.35739
-6.35734
-6.35729
-6.35726
-6.35726
-6.3573
-6.3574
-6.35759
-6.3579
-6.35838
-6.35907
-6.36003
-6.36134
-6.36308
-6.36535
-6.36824
-6.37188
-6.37638
-6.38187
-6.38848
-6.39634
-6.40556
-6.41626
-6.42856
-6.44254
-6.45831
-6.47601
-6.49521
-6.37315
-6.3731
-6.37305
-6.37302
-6.37303
-6.37307
-6.37319
-6.37339
-6.37372
-6.37421
-6.37493
-6.37592
-6.37725
-6.37902
-6.38131
-6.38423
-6.38787
-6.39237
-6.39785
-6.40441
-6.41219
-6.4213
-6.43186
-6.44396
-6.45772
-6.4732
-6.49052
-6.50972
-122.6
-122.6
-122.599
-122.599
-122.599
-122.599
-122.599
-122.599
-122.599
-122.599
-122.599
-122.6
-122.6
-122.6
-122.6
-122.601
-122.601
-122.601
-122.602
-122.602
-122.602
-122.602
-122.602
-122.601
-122.602
-122.599
-122.604
-122.596
-122.047
-122.047
-122.047
-122.047
-122.047
-122.047
-122.047
-122.047
-122.047
-122.047
-122.047
-122.047
-122.047
-122.048
-122.048
-122.048
-122.049
-122.049
-122.05
-122.05
-122.051
-122.051
-122.053
-122.053
-122.056
-122.056
-122.065
-122.06
-4.01571
-4.01571
-4.0157
-4.0157
-4.01569
-4.01569
-4.01568
-4.01568
-4.01567
-4.01567
-4.01567
-4.01567
-4.01566
-4.01566
-4.01567
-4.01567
-4.01567
-4.01568
-4.01569
-4.01569
-4.0157
-4.01571
-4.01571
-4.01571
-4.01572
-4.01576
-4.01583
-4.01595
-4.01435
-4.01435
-4.01434
-4.01433
-4.01433
-4.01433
-4.01432
-4.01432
-4.01432
-4.01431
-4.01431
-4.01432
-4.01432
-4.01433
-4.01434
-4.01435
-4.01437
-4.01439
-4.01442
-4.01446
-4.0145
-4.01454
-4.01458
-4.01463
-4.01466
-4.01468
-4.01467
-4.01458
-4.01197
-4.01197
-4.01196
-4.01196
-4.01196
-4.01195
-4.01195
-4.01195
-4.01194
-4.01195
-4.01195
-4.01195
-4.01196
-4.01197
-4.01199
-4.01201
-4.01204
-4.01207
-4.01212
-4.01218
-4.01225
-4.01235
-4.01246
-4.0126
-4.01278
-4.01299
-4.01325
-4.01359
-4.01019
-4.01019
-4.01018
-4.01018
-4.01017
-4.01017
-4.01016
-4.01016
-4.01016
-4.01016
-4.01015
-4.01015
-4.01015
-4.01016
-4.01016
-4.01017
-4.01018
-4.01019
-4.01021
-4.01024
-4.01027
-4.01031
-4.01036
-4.01042
-4.0105
-4.01057
-4.01072
-4.0108
-4.00764
-4.00764
-4.00763
-4.00762
-4.00762
-4.00762
-4.00761
-4.00761
-4.00761
-4.00761
-4.00761
-4.00761
-4.00762
-4.00763
-4.00764
-4.00766
-4.00768
-4.00771
-4.00775
-4.00779
-4.00784
-4.0079
-4.00798
-4.00805
-4.00813
-4.00825
-4.00848
-4.0086
-4.00559
-4.00559
-4.00558
-4.00558
-4.00557
-4.00557
-4.00557
-4.00557
-4.00557
-4.00557
-4.00558
-4.00559
-4.0056
-4.00562
-4.00565
-4.00569
-4.00574
-4.0058
-4.00589
-4.00599
-4.00612
-4.00629
-4.00649
-4.00674
-4.00708
-4.00764
-4.00845
-4.00922
-4.00268
-4.00268
-4.00267
-4.00267
-4.00266
-4.00266
-4.00266
-4.00265
-4.00265
-4.00265
-4.00264
-4.00264
-4.00264
-4.00264
-4.00264
-4.00264
-4.00264
-4.00265
-4.00266
-4.00266
-4.00267
-4.00268
-4.0027
-4.00271
-4.00272
-4.00271
-4.00267
-4.00272
-4.00052
-4.00051
-4.00051
-4.0005
-4.0005
-4.0005
-4.0005
-4.00049
-4.00049
-4.0005
-4.0005
-4.00051
-4.00052
-4.00053
-4.00055
-4.00058
-4.00061
-4.00065
-4.00071
-4.00077
-4.00084
-4.00093
-4.00104
-4.00116
-4.00129
-4.00143
-4.00158
-4.00166
-3.99752
-3.99752
-3.99752
-3.99751
-3.99751
-3.99751
-3.99751
-3.99751
-3.99751
-3.99751
-3.99751
-3.99752
-3.99753
-3.99755
-3.99757
-3.99759
-3.99763
-3.99767
-3.99773
-3.99781
-3.9979
-3.99802
-3.99817
-3.99836
-3.9986
-3.99891
-3.99928
-3.99984
-3.99491
-3.99491
-3.9949
-3.9949
-3.9949
-3.9949
-3.99489
-3.99489
-3.99489
-3.99488
-3.99488
-3.99487
-3.99486
-3.99485
-3.99484
-3.99483
-3.99481
-3.99479
-3.99476
-3.99472
-3.99468
-3.99462
-3.99454
-3.99444
-3.99432
-3.99414
-3.99392
-3.9936
-3.99214
-3.99214
-3.99214
-3.99213
-3.99213
-3.99213
-3.99213
-3.99213
-3.99213
-3.99213
-3.99213
-3.99214
-3.99214
-3.99216
-3.99217
-3.99219
-3.99221
-3.99224
-3.99227
-3.99231
-3.99237
-3.99243
-3.99249
-3.99257
-3.99266
-3.99275
-3.99287
-3.99289
-115.6
-115.6
-115.599
-115.599
-115.599
-115.599
-115.598
-115.598
-115.598
-115.597
-115.597
-115.596
-115.596
-115.596
-115.595
-115.596
-115.596
-115.597
-115.599
-115.601
-115.605
-115.61
-115.617
-115.625
-115.637
-115.648
-115.668
-115.684
-115.242
-115.242
-115.242
-115.241
-115.241
-115.241
-115.241
-115.241
-115.24
-115.24
-115.24
-115.24
-115.239
-115.24
-115.24
-115.241
-115.242
-115.244
-115.246
-115.249
-115.254
-115.26
-115.268
-115.276
-115.289
-115.299
-115.319
-115.332
-114.868
-114.868
-114.868
-114.868
-114.868
-114.868
-114.868
-114.868
-114.868
-114.869
-114.87
-114.871
-114.873
-114.875
-114.878
-114.882
-114.888
-114.894
-114.902
-114.912
-114.925
-114.939
-114.958
-114.979
-115.006
-115.033
-115.076
-115.108
-117.997
-117.997
-117.997
-117.997
-117.997
-117.997
-117.997
-117.996
-117.995
-117.993
-117.991
-117.989
-117.985
-117.982
-117.977
-117.972
-117.967
-117.961
-117.954
-117.948
-117.941
-117.934
-117.928
-117.922
-117.918
-117.914
-117.916
-117.904
-117.704
-117.704
-117.704
-117.704
-117.704
-117.704
-117.703
-117.703
-117.702
-117.701
-117.699
-117.697
-117.695
-117.692
-117.689
-117.685
-117.681
-117.677
-117.673
-117.669
-117.666
-117.662
-117.66
-117.659
-117.66
-117.662
-117.668
-117.678
-102.764
-102.769
-102.778
-102.788
-102.799
-102.805
-102.8
-102.777
-102.731
-102.657
-102.55
-102.41
-102.235
-102.032
-101.808
-101.572
-101.332
-101.093
-100.859
-100.626
-100.389
-100.147
-99.9071
-99.664
-99.4331
-99.1776
-98.9687
-98.6707
-105.369
-105.373
-105.385
-105.404
-105.425
-105.437
-105.428
-105.384
-105.298
-105.17
-104.997
-104.775
-104.505
-104.201
-103.878
-103.558
-103.252
-102.959
-102.685
-102.424
-102.167
-101.91
-101.669
-101.448
-101.252
-101.053
-100.917
-100.684
-104.479
-104.483
-104.495
-104.518
-104.55
-104.58
-104.594
-104.581
-104.538
-104.475
-104.392
-104.281
-104.141
-103.974
-103.791
-103.611
-103.437
-103.261
-103.085
-102.915
-102.752
-102.596
-102.456
-102.358
-102.296
-102.252
-102.226
-102.151
-101.789
-101.785
-101.781
-101.779
-101.782
-101.789
-101.804
-101.828
-101.86
-101.896
-101.934
-101.974
-102.021
-102.072
-102.126
-102.179
-102.225
-102.266
-102.308
-102.349
-102.396
-102.472
-102.555
-102.659
-102.771
-102.919
-103.06
-103.272
-100.261
-100.258
-100.256
-100.255
-100.257
-100.265
-100.281
-100.306
-100.343
-100.392
-100.455
-100.529
-100.61
-100.696
-100.79
-100.891
-101.007
-101.138
-101.283
-101.443
-101.619
-101.815
-102.025
-102.263
-102.504
-102.772
-103.045
-103.469
-121.484
-121.484
-121.484
-121.484
-121.484
-121.484
-121.484
-121.485
-121.485
-121.486
-121.486
-121.487
-121.489
-121.49
-121.492
-121.494
-121.496
-121.499
-121.502
-121.506
-121.511
-121.516
-121.523
-121.53
-121.542
-121.55
-121.57
-121.57
-126.232
-126.231
-126.231
-126.23
-126.229
-126.229
-126.229
-126.229
-126.231
-126.233
-126.236
-126.242
-126.249
-126.259
-126.272
-126.289
-126.309
-126.333
-126.361
-126.393
-126.429
-126.468
-126.512
-126.56
-126.613
-126.674
-126.734
-126.8
-121.184
-121.183
-121.183
-121.183
-121.184
-121.184
-121.184
-121.185
-121.186
-121.187
-121.188
-121.19
-121.192
-121.194
-121.197
-121.2
-121.205
-121.21
-121.216
-121.223
-121.232
-121.244
-121.257
-121.274
-121.296
-121.319
-121.356
-121.389
-120.86
-120.86
-120.86
-120.86
-120.86
-120.86
-120.86
-120.86
-120.861
-120.861
-120.862
-120.862
-120.863
-120.864
-120.866
-120.867
-120.869
-120.87
-120.873
-120.875
-120.878
-120.881
-120.885
-120.888
-120.894
-120.896
-120.911
-120.909
-93.8403
-93.841
-93.8419
-93.8426
-93.8433
-93.8441
-93.8449
-93.8458
-93.8468
-93.8479
-93.8492
-93.8506
-93.8521
-93.8536
-93.8551
-93.8566
-93.8578
-93.8587
-93.8588
-93.8578
-93.8556
-93.8515
-93.845
-93.8359
-93.8242
-93.8086
-93.7879
-93.7574
-94.1469
-94.1475
-94.1483
-94.149
-94.1497
-94.1504
-94.1511
-94.1518
-94.1526
-94.1534
-94.1542
-94.155
-94.1559
-94.1567
-94.1574
-94.158
-94.1583
-94.1584
-94.1582
-94.1574
-94.1558
-94.1534
-94.1504
-94.1469
-94.1427
-94.1364
-94.1288
-94.1157
-94.4804
-94.481
-94.4817
-94.4824
-94.483
-94.4836
-94.4842
-94.4848
-94.4854
-94.4859
-94.4864
-94.4868
-94.487
-94.4871
-94.487
-94.4866
-94.486
-94.4852
-94.4841
-94.4829
-94.4815
-94.4799
-94.4781
-94.4762
-94.4742
-94.4728
-94.4744
-94.4754
-94.8304
-94.831
-94.8317
-94.8322
-94.8328
-94.8333
-94.8337
-94.8341
-94.8343
-94.8343
-94.834
-94.8335
-94.8325
-94.8311
-94.829
-94.8262
-94.8226
-94.8182
-94.813
-94.8071
-94.8007
-94.7935
-94.7858
-94.7776
-94.7692
-94.7608
-94.7502
-94.7372
-124.339
-124.339
-124.338
-124.338
-124.338
-124.337
-124.338
-124.338
-124.34
-124.341
-124.344
-124.348
-124.352
-124.357
-124.363
-124.369
-124.376
-124.383
-124.391
-124.4
-124.409
-124.419
-124.429
-124.439
-124.45
-124.46
-124.474
-124.48
-122.326
-122.326
-122.326
-122.326
-122.326
-122.326
-122.326
-122.326
-122.326
-122.327
-122.327
-122.327
-122.328
-122.329
-122.329
-122.33
-122.331
-122.332
-122.333
-122.334
-122.336
-122.337
-122.339
-122.34
-122.343
-122.343
-122.352
-122.345
-126.944
-126.943
-126.943
-126.942
-126.942
-126.942
-126.942
-126.943
-126.944
-126.947
-126.95
-126.955
-126.961
-126.97
-126.98
-126.994
-127.012
-127.033
-127.059
-127.089
-127.124
-127.166
-127.211
-127.262
-127.316
-127.379
-127.449
-127.519
-121.769
-121.769
-121.769
-121.769
-121.769
-121.768
-121.768
-121.768
-121.768
-121.768
-121.768
-121.769
-121.769
-121.769
-121.769
-121.769
-121.77
-121.77
-121.77
-121.771
-121.772
-121.772
-121.774
-121.775
-121.779
-121.778
-121.789
-121.783
-123.742
-123.742
-123.741
-123.741
-123.741
-123.741
-123.741
-123.741
-123.742
-123.743
-123.745
-123.747
-123.749
-123.752
-123.755
-123.758
-123.762
-123.765
-123.769
-123.774
-123.778
-123.783
-123.788
-123.793
-123.799
-123.804
-123.813
-123.815
-123.454
-123.454
-123.453
-123.453
-123.453
-123.453
-123.453
-123.453
-123.454
-123.455
-123.456
-123.458
-123.459
-123.461
-123.463
-123.466
-123.468
-123.471
-123.473
-123.476
-123.478
-123.48
-123.482
-123.483
-123.485
-123.483
-123.486
-123.478
-552.904
-553.043
-553.291
-553.602
-553.807
-553.645
-552.76
-550.812
-547.645
-543.395
-538.226
-532.049
-525.187
-518.277
-511.569
-505.02
-498.333
-491.256
-484.039
-476.87
-469.818
-462.801
-455.662
-448.288
-440.737
-432.969
-424.883
-416.879
-615.25
-615.441
-615.82
-616.383
-617.1
-617.814
-617.774
-615.83
-611.802
-606.431
-599.883
-591.777
-582.496
-572.906
-563.253
-553.549
-543.967
-534.655
-525.451
-516.334
-507.316
-498.349
-489.406
-480.245
-470.966
-461.381
-451.676
-441.852
-597.009
-596.913
-596.686
-596.245
-595.46
-594.159
-592.175
-589.551
-586.344
-582.541
-577.932
-572.135
-565.104
-557.151
-548.785
-540.314
-531.808
-523.239
-514.555
-505.728
-496.832
-487.966
-479.128
-470.258
-461.44
-452.359
-443.358
-433.756
-626.829
-626.856
-626.822
-626.502
-625.578
-623.778
-620.702
-616.12
-610.294
-603.59
-596.162
-588.34
-580.418
-572.401
-564.253
-555.981
-547.558
-538.969
-530.231
-521.361
-512.357
-503.166
-493.788
-484.235
-474.527
-464.648
-454.754
-444.632
-638.478
-638.45
-638.098
-637.06
-635.116
-632.384
-628.612
-623.456
-616.901
-609.249
-601.077
-592.789
-584.398
-575.874
-567.234
-558.459
-549.557
-540.521
-531.336
-522.005
-512.538
-502.953
-493.269
-483.459
-473.576
-463.523
-453.435
-443.137
-647.523
-647.301
-646.432
-644.616
-641.818
-637.952
-632.957
-626.938
-620.093
-612.743
-605.052
-597.009
-588.722
-580.279
-571.711
-563.014
-554.147
-545.085
-535.834
-526.401
-516.802
-507.044
-497.139
-487.088
-476.921
-466.567
-456.242
-445.633
-667.694
-666.943
-665.236
-662.504
-658.932
-654.152
-647.87
-640.443
-632.272
-623.625
-614.687
-605.62
-596.476
-587.249
-577.91
-568.411
-558.742
-548.905
-538.914
-528.784
-518.526
-508.15
-497.651
-487.029
-476.287
-465.397
-454.458
-443.378
-663.326
-662.952
-661.877
-659.843
-656.419
-651.348
-644.946
-637.48
-629.283
-620.66
-611.795
-602.766
-593.623
-584.378
-575.021
-565.526
-555.881
-546.078
-536.13
-526.053
-515.863
-505.563
-495.158
-484.65
-474.038
-463.303
-452.61
-441.6
-664.69
-663.812
-661.842
-659.015
-655.222
-649.921
-643.248
-635.564
-627.203
-618.42
-609.379
-600.199
-590.923
-581.55
-572.043
-562.36
-552.493
-542.443
-532.227
-521.862
-511.358
-500.719
-489.947
-479.04
-467.987
-456.829
-445.59
-434.213
-122.879
-122.879
-122.878
-122.878
-122.878
-122.878
-122.878
-122.878
-122.879
-122.879
-122.88
-122.88
-122.881
-122.882
-122.883
-122.884
-122.885
-122.886
-122.888
-122.889
-122.891
-122.892
-122.894
-122.896
-122.899
-122.9
-122.909
-122.906
-120.534
-120.534
-120.534
-120.534
-120.534
-120.535
-120.535
-120.536
-120.538
-120.539
-120.542
-120.544
-120.547
-120.551
-120.555
-120.56
-120.566
-120.572
-120.58
-120.588
-120.597
-120.606
-120.617
-120.628
-120.64
-120.66
-120.692
-120.693
-123.164
-123.164
-123.164
-123.164
-123.164
-123.164
-123.164
-123.164
-123.165
-123.166
-123.167
-123.168
-123.169
-123.171
-123.173
-123.174
-123.176
-123.178
-123.18
-123.181
-123.183
-123.183
-123.184
-123.183
-123.182
-123.177
-123.176
-123.161
-107.704
-107.702
-107.701
-107.7
-107.7
-107.7
-107.702
-107.705
-107.709
-107.716
-107.725
-107.736
-107.75
-107.767
-107.787
-107.809
-107.833
-107.86
-107.889
-107.922
-107.962
-108.006
-108.048
-108.089
-108.135
-108.184
-108.243
-108.292
-106.519
-106.518
-106.516
-106.515
-106.515
-106.515
-106.516
-106.519
-106.525
-106.533
-106.545
-106.56
-106.581
-106.607
-106.639
-106.679
-106.725
-106.778
-106.839
-106.906
-106.975
-107.053
-107.14
-107.234
-107.328
-107.427