/*--------------------------------*- C++ -*----------------------------------*\
| =========                 |                                                 |
| \\      /  F ield         | OpenFOAM: The Open Source CFD Toolbox           |
|  \\    /   O peration     | Version:  2412                                  |
|   \\  /    A nd           | Website:  www.openfoam.com                      |
|    \\/     M anipulation  |                                                 |
\*---------------------------------------------------------------------------*/
FoamFile
{
    version     2.0;
    format      ascii;
    arch        "LSB;label=32;scalar=64";
    class       volVectorField;
    location    "4000";
    object      wallShearStress;
}
// * * * * * * * * * * * * * * * * * * * * * * * * * * * * * * * * * * * * * //

dimensions      [0 2 -2 0 0 0 0];

internalField   uniform (0 0 0);

boundaryField
{
    frontAndBack
    {
        type            empty;
    }
    symmetry
    {
        type            symmetryPlane;
    }
    outlet
    {
        type            calculated;
        value           uniform (0 0 0);
    }
    wall
    {
        type            calculated;
        value           nonuniform List<vector> 
1155
(
(0.0220591 -0.00131102 -1.83524e-23)
(0.0218585 -0.00127082 2.34471e-21)
(0.0217138 -0.00123533 9.15073e-24)
(0.0215612 -0.00119881 2.33623e-21)
(0.0213917 -0.0011622 2.84497e-27)
(0.0212433 -0.00112759 -2.31899e-21)
(0.0210987 -0.00109325 -1.54535e-26)
(0.0209613 -0.00105932 -9.0681e-24)
(0.0207693 -0.00102285 -2.32531e-21)
(0.0206214 -0.000990965 2.32177e-21)
(0.020488 -0.000958021 0)
(0.589057 5.67729e-06 0)
(0.591512 1.35227e-05 0)
(0.592848 7.71282e-05 0)
(0.591369 0.000163428 0)
(0.58681 0.000235661 0)
(0.580174 0.000278879 0)
(-0.364225 0.000638511 0)
(-0.384408 0.000520682 0)
(-0.39725 -0.00018447 0)
(-0.366801 -0.00222615 0)
(-0.310364 -0.00490887 0)
(-0.262908 -0.000487117 0)
(-0.242336 2.12732e-05 0)
(-0.247725 0.000421177 0)
(-0.261383 -1.87691e-05 0)
(-0.261034 -0.000284559 0)
(-0.25435 -0.00023519 0)
(0.495766 -0.000352426 0)
(0.510515 -0.000359828 0)
(0.525163 -0.000340206 0)
(0.538423 -0.000292433 0)
(0.549984 -0.000247195 0)
(0.560166 -0.000188391 0)
(-0.0648832 0.00738759 -1.50284e-19)
(-0.0544843 0.00630357 1.51057e-19)
(-0.0440297 0.00504918 3.31992e-25)
(-0.0300965 0.00348192 3.04748e-19)
(-0.019885 0.00227541 6.14724e-19)
(-0.00857372 0.000959898 -6.05025e-22)
(-0.00144079 9.01769e-05 3.11327e-19)
(0.0164467 -8.9786e-05 -5.58322e-22)
(0.0164888 -6.95019e-05 0)
(0.0164663 -5.0038e-05 5.88465e-39)
(0.016543 -3.16918e-05 -6.98925e-23)
(0.016635 -1.28025e-05 3.49425e-23)
(0.0168078 -5.2938e-06 0)
(0.0170176 -3.91052e-06 0)
(0.0171677 -3.92147e-06 0)
(0.0173561 -3.60527e-06 0)
(0.0174856 -3.46652e-06 0)
(0.0176722 -3.43039e-06 0)
(-0.200962 -0.000506809 0)
(-0.176455 -0.000607505 0)
(-0.147961 -0.000681921 0)
(-0.116703 -0.000425401 0)
(-0.0988138 0.000354566 0)
(0.010507 -0.00695796 3.99514e-25)
(0.0115909 -0.00749052 -1.07934e-22)
(0.0126662 -0.0079952 -1.08693e-22)
(0.0137889 -0.00850623 -1.99084e-25)
(0.0148749 -0.0089741 -2.78528e-20)
(0.0159832 -0.00943521 4.70198e-38)
(0.0170598 -0.00985961 2.81268e-20)
(0.0181395 -0.0102694 1.57412e-25)
(0.0191996 -0.0106522 -2.82725e-20)
(-0.237787 3.87961e-05 0)
(-0.241685 3.52386e-05 0)
(0.0177587 -1.85033e-06 0)
(0.0178749 -3.21571e-06 0)
(0.0180043 -2.06465e-06 0)
(0.0180895 -2.58226e-06 0)
(0.0182052 -2.18587e-06 0)
(0.0183107 -2.43275e-06 0)
(0.0183879 -1.20834e-06 0)
(0.0184573 -2.31995e-06 0)
(0.018561 -1.03978e-06 0)
(0.0185708 -1.14612e-06 0)
(0.0186607 -1.6783e-06 0)
(-0.265569 6.8294e-05 0)
(-0.269284 0.000108634 0)
(-0.274527 0.000140688 0)
(-0.239909 2.73974e-05 0)
(-0.241711 7.10708e-05 0)
(-0.0584166 0.000261955 0)
(-0.117584 0.00190403 0)
(-0.226329 0.00418007 0)
(-0.376965 0.00203051 0)
(-0.436206 0.000805365 0)
(-0.245713 6.97486e-05 0)
(-0.16112 0.000174856 0)
(-0.248503 6.91908e-05 0)
(-0.250436 5.71559e-05 0)
(-0.12908 -0.000343056 0)
(-0.113549 -0.000315337 0)
(-0.0988491 -0.000283694 0)
(-0.0857711 -0.000241908 0)
(-0.212091 0.000144751 0)
(-0.239868 4.42909e-05 0)
(-0.137937 0.000276562 0)
(-0.243235 4.72581e-05 0)
(-0.224182 0.000101149 0)
(-0.228782 9.12837e-05 0)
(-0.0290512 -0.314286 1.17549e-38)
(0.0070473 -0.0423433 -5.85176e-23)
(0.0589707 0.486347 -2.90031e-20)
(-0.0922607 -0.420652 -1.08806e-20)
(0.194829 0.594294 -2.4299e-22)
(0.506115 1.21252 2.93221e-18)
(1.05596 1.43812 1.5917e-21)
(1.38968 1.87103 1.51598e-18)
(1.70484 1.61967 2.91468e-21)
(-0.235727 4.60582e-05 0)
(-0.253175 9.75325e-05 0)
(-0.232869 7.08469e-05 0)
(-0.368177 0.000582518 0)
(-0.391776 0.000432131 0)
(-0.410743 0.000278221 0)
(-0.423135 9.38656e-05 0)
(-0.428514 -4.55981e-05 0)
(-0.255415 -9.00802e-05 0)
(-0.186394 0.000204246 0)
(-0.251503 -9.64356e-05 0)
(-0.204065 0.000172302 0)
(-0.256631 5.28201e-05 0)
(-0.196036 0.000177736 0)
(-0.218511 0.000125253 0)
(-0.245066 -7.13037e-05 0)
(-0.146786 0.000301527 0)
(0.0831685 -4.75245e-05 0)
(0.0833933 0.000123088 0)
(0.0811613 -5.05573e-06 0)
(0.0865353 -0.000270109 0)
(0.102315 -0.000394978 0)
(-0.0784706 0.000844183 0)
(-0.168024 0.000186113 0)
(-0.206637 0.000193405 0)
(-0.11248 0.000323129 0)
(-0.210287 -3.58145e-05 0)
(-0.430224 0.000241147 0)
(-0.427524 -0.000169638 0)
(0.507008 0.000563694 0)
(0.488335 0.00067825 0)
(0.462308 0.000951038 0)
(0.440536 0.00111502 0)
(0.410464 0.000849405 0)
(0.379137 0.000845003 0)
(0.0319027 -0.00477367 -2.15071e-23)
(0.0317496 -0.0046964 -1.09941e-20)
(0.0316081 -0.00462183 2.14393e-23)
(0.0314561 -0.00454637 -1.09244e-20)
(0.0313026 -0.00447075 0)
(0.0310541 -0.00438209 2.1168e-23)
(0.0308346 -0.00430187 -1.08427e-20)
(0.0306691 -0.00422877 -3.20322e-37)
(0.0305069 -0.00415742 9.9315e-27)
(0.0303663 -0.0040886 -1.15872e-39)
(-0.385627 -0.00259763 0)
(-0.311316 -0.00222639 0)
(-0.228759 -0.00158404 0)
(-0.162846 -0.00105098 0)
(-0.110353 -0.00046338 0)
(-0.0824419 0.000103425 0)
(0.0174861 -0.000121028 0)
(0.0254571 -0.00022372 0)
(0.0385782 -0.000371742 0)
(0.0555901 -0.000458078 0)
(0.0735607 -0.000315348 0)
(-0.154273 0.000469281 0)
(-0.170488 0.000470466 0)
(-0.187592 0.000460031 0)
(-0.20354 0.000295159 0)
(-0.212917 4.73566e-05 0)
(-0.0846348 -1.19788e-05 0)
(-0.0821374 -0.000103045 0)
(-0.0782085 -0.000164227 0)
(-0.0707723 -0.000245918 0)
(-0.059565 -0.000331956 0)
(0.00245636 -0.00211477 -5.32596e-20)
(0.00321962 -0.00267512 1.04618e-22)
(0.00388566 -0.00312797 1.07137e-19)
(0.00477577 -0.00372476 5.39861e-20)
(0.0055421 -0.00419587 5.40976e-20)
(0.00651046 -0.00479066 -2.72637e-20)
(0.00743218 -0.00531752 2.73697e-20)
(0.0084185 -0.00586616 2.72648e-20)
(0.00945427 -0.00641872 2.14516e-22)
(0.596914 -0.0425003 -2.76211e-22)
(0.63991 -0.0458219 2.76004e-22)
(0.661458 -0.0477759 2.92173e-22)
(0.673503 -0.0493541 -2.92089e-22)
(0.680133 -0.0505304 -2.35099e-38)
(0.677032 -0.0509024 -1.57961e-19)
(0.657723 -0.0498217 -4.08325e-24)
(-0.248429 0.0526058 1.1154e-21)
(-0.278525 0.0591563 -1.11465e-21)
(-0.303009 0.0648716 -2.83848e-19)
(-0.316359 0.0679504 2.19687e-21)
(-0.31685 0.0685283 -1.09573e-21)
(-0.309479 0.0674181 0)
(-0.293164 0.0642963 -2.78058e-19)
(0.116195 -0.000222395 0)
(0.122671 -0.000206883 0)
(0.136488 -0.000406563 0)
(0.158557 -0.000571387 0)
(0.187384 -0.00061449 0)
(0.0223649 -2.55083e-06 0)
(0.0224845 -2.57205e-06 0)
(0.0226072 -2.70622e-06 0)
(0.0227364 -2.7846e-06 0)
(0.0228671 -2.83139e-06 0)
(0.0230003 -2.92524e-06 0)
(0.023141 -3.06469e-06 0)
(0.0232843 -3.08421e-06 0)
(0.02343 -3.20773e-06 0)
(0.0235829 -3.28897e-06 0)
(0.0237365 -3.31605e-06 0)
(0.0238924 -3.38595e-06 0)
(0.0240533 -3.51423e-06 0)
(0.0242204 -3.6312e-06 0)
(0.0266341 0.00280685 0)
(-0.0579781 0.00291555 0)
(-0.151625 0.00273385 0)
(-0.249605 0.00236867 0)
(-0.341059 0.00146054 0)
(-0.411529 0.000852753 0)
(0.0283561 -0.0131353 1.17184e-25)
(0.0290989 -0.0132688 3.44434e-20)
(0.0297857 -0.0133724 4.1628e-21)
(0.0304582 -0.0134564 5.73223e-21)
(0.0311287 -0.0135331 2.85761e-20)
(0.0317479 -0.0135919 5.60232e-23)
(0.0323291 -0.0136329 -7.05297e-37)
(0.0328779 -0.0136588 -2.85886e-20)
(0.0333846 -0.0136666 -2.86769e-20)
(0.0387939 -0.012203 2.75179e-20)
(0.0388635 -0.0120783 0)
(0.0389245 -0.0119538 -1.37877e-26)
(0.0389735 -0.0118262 5.45635e-20)
(0.038931 -0.0116748 0)
(0.0389898 -0.0115581 -2.89232e-36)
(0.0390222 -0.0114322 -1.08139e-36)
(0.0390333 -0.0113045 -5.25674e-23)
(0.0390619 -0.0111818 5.2569e-23)
(-0.216511 -0.00020979 0)
(-0.206369 -0.000198467 0)
(-0.199244 3.54167e-05 0)
(-0.204164 5.75075e-05 0)
(0.0275411 -6.16325e-06 0)
(0.0278321 -6.36563e-06 0)
(0.0281341 -6.64288e-06 0)
(0.0284494 -6.92881e-06 0)
(0.0287789 -7.2482e-06 0)
(0.0291219 -7.54538e-06 0)
(0.0294809 -7.9161e-06 0)
(0.0298553 -8.22437e-06 0)
(0.0302458 -8.64419e-06 0)
(0.0306563 -9.04127e-06 0)
(0.0310854 -9.50792e-06 0)
(0.0315375 -9.98614e-06 0)
(0.0320114 -1.05101e-05 0)
(0.0325119 -1.10901e-05 0)
(0.0330384 -1.16831e-05 0)
(-0.21549 0.000199949 0)
(-0.219678 -2.36168e-05 0)
(-0.217783 -0.000111664 0)
(-0.213525 -0.000183014 0)
(-0.0810584 0.000517874 0)
(-0.104964 0.000931223 0)
(-0.142267 0.00135268 0)
(-0.192104 0.00120321 0)
(-0.241892 0.000982827 0)
(-0.269624 7.37774e-05 0)
(-0.210792 0.0073165 0)
(-0.30323 -0.000180525 0)
(-0.262391 -0.0014436 0)
(-0.239365 -0.00079917 0)
(-0.219213 -0.000488864 0)
(0.181776 -0.000169641 0)
(0.191967 -0.000237888 0)
(0.203285 -0.000272396 0)
(0.217009 -0.000366991 0)
(0.234071 -0.000479147 0)
(0.0195543 -8.57594e-07 0)
(0.0195426 4.96421e-07 0)
(0.0195532 -1.06663e-06 0)
(0.0195959 -2.85462e-08 0)
(0.0195831 -5.64159e-07 0)
(0.0196237 -2.52707e-07 0)
(0.0196166 -1.55573e-07 0)
(0.0196297 -1.23486e-07 0)
(0.019633 -1.78732e-07 0)
(0.0196393 -5.02748e-08 0)
(0.0196434 -1.94543e-07 0)
(-0.465072 0.000600297 0)
(-0.499701 0.000828953 0)
(-0.533361 0.000338099 0)
(-0.542463 -0.000747185 0)
(-0.502075 -0.00202061 0)
(-0.692119 0.503914 9.13067e-20)
(-0.213357 0.126548 1.68613e-18)
(0.326185 -0.247612 -3.73201e-18)
(-0.0780928 0.103603 1.71572e-20)
(-0.985564 0.874552 -3.51407e-21)
(-1.92194 1.66313 6.42846e-21)
(-1.93759 1.69708 -4.66013e-22)
(-1.24092 1.08105 -3.67483e-22)
(-0.73039 0.406527 -3.68536e-21)
(0.000360401 0.00367307 0)
(-8.62043e-05 0.00341518 1.55757e-21)
(-0.00027259 0.00355507 -1.40141e-37)
(-0.00046984 0.00362218 2.93874e-39)
(-0.000622958 0.00344637 1.25204e-20)
(-0.000817691 0.00352049 -2.50995e-20)
(-0.00093305 0.00329763 -2.50963e-20)
(-0.00109542 0.0032876 -9.84424e-23)
(-0.00118752 0.00310015 -2.52043e-20)
(0.0362823 -0.00746832 1.21476e-20)
(0.0361347 -0.00735831 4.72092e-23)
(0.0360138 -0.00725533 -4.72103e-23)
(0.0358688 -0.0071484 -2.40476e-20)
(0.03573 -0.00704476 -1.19831e-20)
(0.0355895 -0.00694153 -4.65789e-23)
(0.0354378 -0.00683783 1.19481e-20)
(0.0352957 -0.00673732 0)
(0.0351493 -0.0066373 -0)
(2.07334 1.93439 5.55184e-18)
(1.88155 1.45969 0)
(1.3954 0.866258 -5.15355e-19)
(0.789524 0.390521 5.97867e-19)
(0.531834 0.241924 -3.76158e-37)
(0.364258 0.170462 -3.84255e-21)
(-1.83159 -0.181151 2.98139e-18)
(-2.59359 0.0384258 -8.20376e-19)
(0.859005 -0.531211 8.27826e-19)
(0.819374 -0.508345 -6.50861e-21)
(0.603338 -0.384296 -8.72681e-19)
(0.510439 -0.340798 4.70198e-38)
(0.623845 -0.423373 -9.00251e-19)
(0.575116 -0.386641 0)
(0.15855 -0.0620484 9.54285e-19)
(-0.827488 0.619482 -8.28994e-19)
(-0.320066 0.0615397 -2.93995e-19)
(-0.332612 0.0632662 0)
(-0.311058 0.058841 -2.85588e-19)
(-0.24487 0.046834 2.12263e-20)
(-0.201809 0.0393188 2.85949e-19)
(-0.178875 0.0362394 -2.41822e-19)
(-0.191636 0.0396403 1.75678e-23)
(-0.219514 0.0461776 -1.14552e-21)
(-0.0749886 0.0262153 -6.45965e-19)
(-0.154883 0.049284 0)
(-0.13732 0.042835 -4.41351e-20)
(-0.0957548 0.0235081 2.306e-20)
(0.115004 -0.0416433 2.35099e-38)
(0.176805 -0.0566979 7.32382e-20)
(0.0486773 -0.00829893 -4.67552e-26)
(0.00442226 -0.000593798 -3.13204e-19)
(0.00546849 -0.000682116 6.1234e-22)
(0.00207079 -0.00012624 -6.18939e-22)
(-0.00979072 0.00163583 6.18736e-22)
(-0.0300827 0.00460823 -1.47301e-24)
(-0.0594187 0.00886702 -6.24279e-22)
(0.0471576 -3.6568e-05 0)
(0.0489332 -4.10074e-05 0)
(0.050925 -4.62791e-05 0)
(0.0531849 -5.29591e-05 0)
(0.0557802 -6.12382e-05 0)
(0.0587935 -7.19594e-05 0)
(0.0623591 -8.62886e-05 0)
(0.0666643 -0.000105987 0)
(0.0719972 -0.000134343 0)
(0.078834 -0.000177764 0)
(0.0880075 -0.000249621 0)
(0.101114 -0.000374627 0)
(0.121006 -0.000648624 0)
(0.157239 -0.00132245 0)
(0.119052 -0.00819961 3.08513e-22)
(0.028288 0.000669217 -3.09056e-22)
(-0.0767599 0.0100346 -1.53321e-19)
(-0.182507 0.0189632 -2.98898e-19)
(-0.253899 0.0238958 1.46283e-19)
(-0.261878 0.0238278 -2.35099e-38)
(0.0194142 -5.32113e-07 0)
(0.0194438 -7.07493e-07 0)
(0.019478 -6.62768e-07 0)
(0.0195113 -7.63815e-07 0)
(0.0195475 -6.8671e-07 0)
(0.0195797 -7.39155e-07 0)
(0.0196182 -9.36221e-07 0)
(0.0196721 -1.1956e-06 0)
(0.0197239 -1.03723e-06 0)
(0.0197744 -1.13418e-06 0)
(0.0198244 -1.04103e-06 0)
(0.0198788 -1.2523e-06 0)
(0.0199341 -1.05406e-06 0)
(0.0199849 -1.20858e-06 0)
(-0.164789 0.00882244 -2.62672e-37)
(-0.261021 0.012505 1.46324e-41)
(-0.357293 0.0167471 -3.22047e-39)
(-0.463606 0.0217936 5.87747e-39)
(-0.590645 0.0287703 -7.83836e-20)
(-0.754892 0.037523 -7.64282e-20)
(-0.197106 0.000894096 0)
(-0.189887 0.00100209 -1.66732e-37)
(-0.182308 0.00117675 3.22299e-44)
(-0.173648 0.00135318 5.88553e-26)
(-0.164002 0.001576 -1.89623e-20)
(-0.159511 0.00187511 -7.41947e-23)
(-0.48606 1.15492 -1.46937e-37)
(0.0533008 -0.491504 2.59877e-21)
(1.25791 -4.51295 -1.82541e-18)
(1.04396 -3.73967 5.75936e-20)
(0.352283 -1.11509 2.09938e-19)
(-0.0977198 0.560638 -1.2125e-20)
(0.145475 -1.47933 5.50777e-19)
(0.139334 -0.852943 2.35104e-19)
(-0.178111 0.000181586 0)
(-0.111136 0.0600686 -9.47273e-19)
(-0.126973 0.0687063 -7.03873e-19)
(-0.108674 0.0581353 -1.41655e-18)
(-0.0436746 0.0212904 1.69604e-23)
(0.0532323 -0.0349855 -7.26735e-19)
(0.197472 -0.122425 2.84e-21)
(0.379971 -0.236252 -7.5047e-19)
(0.681882 -0.425009 0)
(0.0371416 -0.013245 -2.81968e-20)
(0.0373792 -0.0131574 -2.80839e-20)
(0.0376161 -0.0130707 -5.48991e-23)
(0.0378176 -0.0129738 -2.79597e-20)
(0.0380125 -0.0128763 2.78943e-20)
(0.0381858 -0.0127735 -2.78813e-20)
(0.0383442 -0.0126672 -5.42499e-23)
(0.0384765 -0.0125543 5.42515e-23)
(0.0386013 -0.0124414 -2.76144e-20)
(0.0386997 -0.0123215 -5.39672e-23)
(-0.237662 -0.000245305 0)
(-0.227389 -0.000299855 0)
(-0.216421 -0.000109083 1.63618e-41)
(-0.209753 0.000248275 1.0894e-37)
(-0.205584 0.000507029 4.76573e-21)
(-0.201571 0.000721707 -9.49706e-21)
(-0.995112 0.0486937 2.36429e-22)
(-0.870035 0.043046 -5.86705e-20)
(-0.73581 0.0366615 0)
(-0.59971 0.0299015 2.23132e-22)
(-0.441639 0.0169486 -6.55474e-24)
(-0.302699 0.0121325 -5.18807e-20)
(-0.143603 0.00476416 -2.28915e-22)
(-0.245849 -0.000133721 0)
(-0.24103 -0.000183876 0)
(-0.236349 -0.000323566 0)
(-0.225519 -0.000258071 0)
(-0.455593 0.000216004 0)
(-0.478744 -7.54272e-05 0)
(-0.489815 -0.000351517 0)
(-0.487781 -0.000700383 0)
(-0.468721 -0.00122651 0)
(-0.429541 -0.00168052 0)
(-0.0748387 -0.000171333 0)
(-0.0675178 -5.59781e-05 0)
(-0.0640942 4.10169e-05 0)
(-0.065559 0.000109774 0)
(-0.0687205 9.80252e-05 0)
(0.0284351 -0.00329728 -5.21789e-21)
(0.0282567 -0.00323306 4.03349e-23)
(0.0281002 -0.00317485 5.12873e-21)
(0.0279799 -0.00311887 -4.85283e-27)
(0.0278249 -0.0030612 -5.12056e-21)
(0.0277075 -0.00300695 -5.10625e-21)
(0.0275495 -0.00294925 -5.09251e-21)
(0.0273713 -0.00288941 5.07834e-21)
(0.0271926 -0.00283207 -7.34684e-40)
(0.0270442 -0.00277745 -1.97067e-23)
(-0.442301 0.000346888 0)
(-0.459958 0.000385348 0)
(-0.24113 -4.91851e-05 0)
(-0.243232 -4.15922e-05 0)
(-0.244546 0.000105167 0)
(-0.248977 0.000122458 0)
(-0.254193 0.000121641 0)
(-0.259091 9.14907e-05 0)
(-0.262656 6.48089e-05 0)
(0.039031 -0.0110457 -5.22383e-23)
(0.0390402 -0.0109215 -2.66515e-20)
(0.0389173 -0.0107634 2.65652e-20)
(0.0389233 -0.0106467 -2.6483e-20)
(0.038906 -0.0105206 -2.64465e-20)
(0.0388502 -0.0103893 -1.17549e-38)
(0.0388354 -0.0102685 6.33665e-39)
(0.0387489 -0.0101323 -5.10617e-23)
(0.0386956 -0.0100059 2.61506e-20)
(0.0385964 -0.00987036 -2.60127e-20)
(-0.475659 0.000283433 0)
(-0.491135 0.000372643 0)
(-0.507583 0.00026109 0)
(-0.518665 0.000147702 0)
(-0.522989 -0.000184263 0)
(-0.262185 -0.000190371 0)
(-0.256691 -0.0001066 0)
(-0.253088 -8.79688e-05 0)
(-0.249506 -7.87102e-05 0)
(-0.117035 0.00045659 0)
(0.0268911 -0.00272303 -4.99908e-21)
(0.0266895 -0.00266323 -5.0996e-26)
(0.0265082 -0.00260912 -3.91536e-23)
(0.0263695 -0.00255761 1.95546e-23)
(0.0262068 -0.00250593 5.00669e-21)
(0.0260974 -0.00245773 -9.75305e-24)
(0.0258798 -0.00240061 -9.70352e-24)
(0.025744 -0.00235344 9.65561e-24)
(0.0255975 -0.00230395 -9.65572e-24)
(0.0254413 -0.0022552 4.85887e-27)
(-0.120808 0.00215703 0)
(-0.174834 0.00173064 0)
(-0.235175 0.00104334 0)
(-0.266245 8.14006e-05 0)
(-0.265191 -0.000806174 0)
(-0.237583 -0.000936991 0)
(-0.21012 -0.000522656 0)
(-0.18898 -0.000406535 0)
(-0.170417 -0.000412988 0)
(0.0186278 -6.62031e-08 0)
(0.0186286 -9.21138e-08 0)
(0.0186377 -1.13938e-07 0)
(0.0186399 -4.17167e-08 0)
(0.018646 -1.95157e-07 0)
(0.0186576 -1.53357e-07 0)
(0.0186619 -1.46443e-07 0)
(0.0186743 -2.09312e-07 0)
(0.0186799 -1.43817e-07 0)
(0.0186939 -3.33184e-07 0)
(0.0187066 -1.93119e-07 0)
(0.0187189 -3.49232e-07 0)
(0.018735 -2.73095e-07 0)
(-1.21452 0.00433715 0)
(-1.08747 -0.0109788 0)
(-0.683356 -0.034712 0)
(0.0167639 -0.000453822 0)
(-0.0227647 -0.00287507 0)
(0.1702 -0.0773994 9.72084e-24)
(0.105163 -0.0470195 2.66897e-40)
(0.116685 -0.0624224 -3.76158e-37)
(0.322862 -0.157191 -6.91071e-19)
(0.117381 -0.0542886 2.25695e-36)
(-0.174769 0.0970094 -3.40532e-35)
(-0.241365 0.1288 0)
(-0.195745 0.09729 -7.2666e-19)
(0.0334865 -0.00560682 2.93874e-39)
(0.0333455 -0.00552209 1.13556e-20)
(0.0331546 -0.00542827 -2.20688e-23)
(0.0329734 -0.00534038 1.12816e-20)
(0.0328363 -0.00525841 2.19977e-23)
(0.0326681 -0.00517398 1.11865e-20)
(0.032543 -0.00509605 2.18558e-23)
(0.0323852 -0.00501434 2.17146e-23)
(0.0322307 -0.00493324 -2.17151e-23)
(0.0320401 -0.00484895 -1.10645e-20)
(0.035007 -0.00653931 -5.28972e-38)
(0.0348637 -0.00644243 -1.17413e-20)
(0.0347182 -0.00634616 5.87747e-39)
(0.0345724 -0.00625122 1.16623e-20)
(0.0344237 -0.00615678 2.26627e-23)
(0.0342748 -0.00606345 1.15613e-20)
(0.0341045 -0.00596731 -2.31125e-20)
(0.0339519 -0.00587643 2.25118e-23)
(0.0338027 -0.00578635 1.1446e-20)
(0.0336536 -0.00569776 2.23628e-23)
(0.316826 -0.0540484 9.96495e-24)
(0.266313 -0.0459675 3.27099e-19)
(0.201224 -0.0345488 -3.26227e-19)
(0.116853 -0.0185719 1.25699e-21)
(0.00805095 0.00253492 -1.23723e-21)
(-0.120863 0.0262457 -3.09143e-19)
(-0.244396 0.0485507 -3.01216e-19)
(-0.451599 -0.00193928 0)
(-0.388536 -0.000874503 0)
(-0.356447 -0.000300254 0)
(-0.345313 -0.000206633 0)
(-0.345761 9.84739e-05 0)
(0.572082 0.000332092 0)
(0.562099 0.000381501 0)
(0.55064 0.000416616 0)
(0.538141 0.000454877 0)
(0.523579 0.000518362 0)
(0.0189163 1.0208e-08 0)
(0.0189219 2.75082e-07 0)
(0.0188968 7.16981e-08 0)
(0.0189153 1.60209e-07 0)
(0.018865 1.1457e-06 0)
(0.01884 2.22583e-07 0)
(0.0188229 8.51622e-07 0)
(0.018787 2.87256e-07 0)
(0.0187823 5.35258e-07 0)
(0.0187506 5.10942e-07 0)
(0.018731 5.67186e-07 0)
(0.0187091 3.21094e-07 0)
(0.0187132 -9.45685e-07 0)
(0.0187488 -1.16791e-06 0)
(0.0188198 -1.67837e-06 0)
(0.0188897 -1.11763e-06 0)
(0.0189161 -8.1997e-07 0)
(0.0189713 -1.30916e-06 0)
(0.019021 -9.41365e-07 0)
(0.0190652 -1.21265e-06 0)
(0.0191187 -1.07502e-06 0)
(0.019168 -1.22229e-06 0)
(0.0192173 -1.12198e-06 0)
(-0.271192 0.0600513 5.55076e-19)
(-0.248787 0.0556538 -2.7712e-19)
(-0.22693 0.0512642 2.7784e-19)
(-0.20473 0.0465885 -2.78603e-19)
(-0.177443 0.0400692 -8.46411e-23)
(-0.151017 0.034119 0)
(-0.11604 0.0267089 3.16113e-24)
(-0.0804467 0.0184216 1.18651e-37)
(2.92962 -1.87926 -3.28888e-21)
(7.21533 -5.91804 1.84533e-18)
(6.61233 -10.6259 1.25979e-20)
(1.72663 -10.8375 7.41179e-19)
(-1.93697 -8.49848 1.64757e-21)
(-3.63997 -5.5306 -5.88112e-19)
(-3.03682 -2.16131 -2.7703e-19)
(-1.68212 -0.454373 -4.12677e-20)
(-0.311997 -0.0541685 2.23344e-37)
(-0.252743 -6.49904e-05 0)
(-0.251608 0.000104481 0)
(-0.255836 5.84163e-05 0)
(-0.253016 -1.00213e-05 0)
(-0.249565 -2.65959e-06 0)
(-0.245628 -0.000104062 0)
(-0.0931053 0.0137653 -3.18399e-19)
(-0.136231 0.0205087 2.29051e-24)
(-0.177408 0.0263602 6.37863e-19)
(-0.238867 0.0358244 3.17771e-19)
(-0.29283 0.0439585 9.40395e-38)
(-0.344018 0.0518067 0)
(-0.385903 0.0582931 3.11665e-19)
(-0.0784787 2.94558e-06 0)
(-0.0787083 1.52711e-05 0)
(-0.0802807 5.81656e-05 0)
(-0.0820999 6.13929e-05 0)
(-0.0834182 4.62139e-05 0)
(-0.152699 -0.000247601 0)
(-0.14195 -0.000155511 0)
(-0.135141 -1.07784e-06 0)
(-0.135039 0.000141247 0)
(-0.142542 0.000169432 0)
(0.0376049 -0.00862085 1.26203e-20)
(0.0374619 -0.00849569 -1.25775e-20)
(0.0373326 -0.00837532 2.49699e-20)
(0.0372161 -0.00826003 1.17549e-38)
(0.0370578 -0.00813535 -1.23989e-20)
(0.03691 -0.00801763 0)
(0.0367934 -0.00790591 1.23144e-20)
(0.036645 -0.0077908 -1.22253e-20)
(0.0365434 -0.00768551 1.21351e-20)
(0.0363947 -0.00757261 1.2237e-20)
(0.0190288 -5.19596e-07 0)
(0.0190576 -6.75839e-07 0)
(0.0190876 -5.99853e-07 0)
(0.0191193 -7.08638e-07 0)
(0.019148 -5.26956e-07 0)
(0.0191758 -7.30329e-07 0)
(0.0192108 -5.43e-07 0)
(0.0192305 -4.25707e-07 0)
(0.0192515 -4.70683e-07 0)
(0.0192811 -8.07688e-07 0)
(0.0193254 -8.00851e-07 0)
(0.019354 -6.20896e-07 0)
(0.0193871 -6.71685e-07 0)
(-0.11229 -0.0383362 1.40792e-20)
(-0.0143443 -0.00975684 -4.85109e-23)
(-0.00246775 -0.00292565 -1.8628e-24)
(0.00345767 0.003966 2.51842e-20)
(0.00107288 0.000590078 -9.05403e-25)
(-0.0344581 0.00539758 -2.88434e-21)
(-0.0675036 0.00761631 1.4552e-19)
(-0.0659309 0.00791775 -1.07738e-19)
(-0.0700188 0.00793665 -1.1643e-21)
(-0.0754646 0.00838369 -1.4228e-19)
(-0.0682563 0.00781293 9.27171e-37)
(-0.0466929 -0.000358681 0)
(-0.0310998 -0.000367036 0)
(-0.0139409 -0.000286308 0)
(-0.000758981 -0.000345346 0)
(0.00965522 -0.000236171 0)
(0.0195551 3.36405e-07 0)
(0.0195364 1.42819e-07 0)
(0.019535 2.18174e-07 0)
(0.0195257 -1.26373e-08 0)
(0.0195306 2.68491e-08 0)
(0.0195266 6.89958e-08 0)
(0.0195196 1.13861e-07 0)
(0.0195208 2.40883e-07 0)
(0.0194855 9.59784e-07 0)
(0.0194525 4.07937e-07 0)
(0.0194392 5.24995e-07 0)
(0.0194183 2.39058e-07 0)
(-8.85026e-05 -0.00362303 2.29475e-22)
(0.127391 -0.0114217 4.70198e-38)
(0.248321 -0.0188686 -2.46106e-19)
(0.344126 -0.0253318 -1.26784e-19)
(0.457654 -0.0332872 -2.59185e-22)
(0.5449 -0.0385873 2.58798e-22)
(-0.136467 0.00169312 3.81065e-20)
(-0.0853579 -0.000294381 -7.52841e-23)
(0.00262775 -0.00358714 7.76258e-20)
(0.125757 -0.00665864 -5.87747e-39)
(0.238008 -0.00731854 -4.04335e-20)
(0.256543 -0.00333881 2.93874e-39)
(-0.285285 -0.000132346 0)
(-0.28066 -0.00014825 0)
(-0.275683 -0.000171457 0)
(-0.269451 -0.000185388 0)
(0.344681 0.000914786 0)
(0.305918 0.00100004 0)
(0.262707 0.00109328 0)
(0.214052 0.00118758 0)
(0.160371 0.00128299 0)
(0.0983414 0.00161737 0)
(-0.217225 0.000536402 0)
(-0.237501 0.000832361 0)
(-0.268383 0.000990424 0)
(-0.303857 0.000961735 0)
(-0.338621 0.000797505 0)
(1.4898 -1.49495 1.68882e-18)
(1.6418 -1.58928 6.74623e-19)
(0.507992 -0.478313 -7.52316e-37)
(-0.539927 0.622468 1.67092e-22)
(-0.848204 1.00395 -7.9023e-22)
(-1.03452 1.25934 3.25623e-20)
(-0.718235 0.889445 -2.07171e-18)
(-0.557247 0.71839 2.15408e-18)
(0.0186989 3.78681e-07 0)
(0.0186821 1.53387e-07 0)
(0.0186854 6.77946e-08 0)
(0.0186756 9.14722e-08 0)
(0.0186824 -6.3968e-08 0)
(0.0186748 1.81495e-07 0)
(0.0186777 -4.22851e-07 0)
(0.0187016 -4.67179e-08 0)
(0.0186808 3.20802e-07 0)
(0.0186782 5.13737e-08 0)
(0.0186706 2.42129e-07 0)
(0.0186646 2.96899e-08 0)
(0.0186625 1.55583e-07 0)
(-0.290624 0.292345 2.61611e-21)
(0.873447 -1.31589 1.33659e-18)
(0.841352 -1.25702 1.19265e-19)
(0.0361534 0.0669139 -8.15355e-19)
(-0.612866 1.09031 -9.68076e-23)
(-0.230052 0.420889 -2.29563e-22)
(-0.299147 0.768449 -4.89893e-22)
(-0.529984 1.26847 7.15609e-23)
(0.222227 -0.0048641 0)
(0.0301955 -0.00401652 6.53524e-38)
(0.0299917 -0.00394094 2.07725e-23)
(0.0298279 -0.00387353 1.06269e-20)
(0.0296861 -0.00380753 1.05742e-20)
(0.0295236 -0.00374125 2.0603e-23)
(0.0294096 -0.00367969 1.0533e-20)
(0.029173 -0.00360403 -1.05227e-20)
(0.0290252 -0.00354273 -1.04913e-36)
(0.0288841 -0.00348059 -5.24152e-21)
(0.0287314 -0.00341873 2.03671e-23)
(0.0285777 -0.0033566 2.0252e-23)
(0.191583 -0.0506625 5.93821e-19)
(0.213817 -0.0573381 -6.00287e-19)
(0.231722 -0.0624805 -6.06531e-19)
(0.244993 -0.0667802 -1.22492e-18)
(0.259371 -0.0714002 0)
(0.270898 -0.0753501 -6.24916e-19)
(0.284102 -0.079919 1.26235e-18)
(0.298507 -0.0848687 1.27484e-18)
(-0.280145 0.00012948 0)
(-0.285172 8.66993e-05 0)
(-0.287705 4.46589e-06 0)
(-0.287745 -5.03505e-05 0)
(0.61707 -0.0470082 3.1457e-22)
(0.558203 -0.0426988 -1.63339e-19)
(0.482687 -0.0366277 2.58627e-20)
(0.42181 -0.0315237 -5.76625e-24)
(0.343355 -0.0269351 3.20947e-22)
(0.270635 -0.0214315 0)
(0.197645 -0.0154752 -1.6154e-19)
(-0.115244 -0.00715549 0)
(0.176619 -0.00938317 0)
(0.463442 0.00324883 0)
(0.245895 0.0059421 0)
(-0.486065 0.0355155 0)
(0.0186587 -2.73611e-08 0)
(0.0186608 1.69418e-07 0)
(0.01865 -1.25158e-07 0)
(0.0186724 5.15768e-09 0)
(0.0186401 7.06499e-07 0)
(0.0186304 -7.09193e-08 0)
(0.018633 2.58556e-07 0)
(0.0186246 -1.82264e-07 0)
(0.018638 5.1607e-08 0)
(0.0186283 8.81741e-08 0)
(0.0186269 2.11826e-07 0)
(0.0186187 -2.26717e-08 0)
(0.0385207 -0.00974233 -2.58741e-20)
(0.0383938 -0.00960389 -1.7121e-25)
(0.0383166 -0.00948034 2.57006e-20)
(0.0382002 -0.0093481 1.28315e-20)
(0.0381119 -0.00922595 -1.17549e-38)
(0.0380116 -0.00910108 -1.27445e-20)
(0.0379126 -0.00897995 -1.2702e-20)
(0.0378113 -0.00885821 -1.26085e-20)
(0.0377002 -0.00873787 -1.26647e-20)
(0.0335948 -1.23812e-05 0)
(0.0341843 -1.30984e-05 0)
(0.0348076 -1.38963e-05 0)
(0.0354704 -1.47952e-05 0)
(0.0361764 -1.57831e-05 0)
(0.0369299 -1.6876e-05 0)
(0.0377368 -1.81085e-05 0)
(0.0386033 -1.94804e-05 0)
(0.0395363 -2.10214e-05 0)
(0.0405443 -2.27754e-05 0)
(0.0416387 -2.47731e-05 0)
(0.042829 -2.70267e-05 0)
(0.044132 -2.97315e-05 0)
(0.0455685 -3.28567e-05 0)
(0.0209953 -1.65811e-06 0)
(0.0210734 -1.74937e-06 0)
(0.0211595 -1.83828e-06 0)
(0.0212463 -1.92091e-06 0)
(0.02134 -2.04714e-06 0)
(0.0214363 -2.0159e-06 0)
(0.0215288 -2.03441e-06 0)
(0.0216279 -2.10768e-06 0)
(0.0217249 -2.06571e-06 0)
(0.021823 -2.14139e-06 0)
(0.0219237 -2.18036e-06 0)
(0.0220286 -2.32843e-06 0)
(0.0221392 -2.32838e-06 0)
(0.0222471 -2.39334e-06 0)
(0.0187499 -3.39177e-07 0)
(0.0187618 -1.82783e-07 0)
(0.0187747 -3.61578e-07 0)
(0.0187908 -2.76574e-07 0)
(0.0188084 -5.26634e-07 0)
(0.0188349 -5.18923e-07 0)
(0.0188624 -7.14825e-07 0)
(0.0188952 -5.46301e-07 0)
(0.018916 -5.40218e-07 0)
(0.0189434 -4.79696e-07 0)
(0.0189615 -3.314e-07 0)
(0.0189766 -4.08032e-07 0)
(0.0190037 -5.81843e-07 0)
(0.297927 -0.0518894 -5.96513e-22)
(0.388755 -0.0662574 -1.03709e-23)
(0.439398 -0.0745195 3.13242e-19)
(0.460273 -0.0778592 0)
(0.449452 -0.0762065 -3.21971e-19)
(0.419035 -0.0711759 3.2534e-19)
(0.371216 -0.0631964 -6.08729e-19)
(0.0192749 -1.11126e-06 0)
(0.0192995 -8.23987e-07 0)
(0.0193685 -1.22143e-06 0)
(0.0193639 4.2191e-07 0)
(0.0193773 -1.25877e-06 0)
(0.0194292 -3.99637e-08 0)
(0.0194109 -6.24786e-07 0)
(0.0194643 -4.99858e-07 0)
(0.0194645 -5.63988e-07 0)
(0.0195113 -5.26449e-07 0)
(0.019503 -2.85979e-07 0)
(0.019262 4.73875e-07 0)
(0.0192542 3.85642e-07 0)
(0.0192265 5.17908e-07 0)
(0.0192139 1.77229e-07 0)
(0.0192057 3.29173e-07 0)
(0.0191885 1.2825e-07 0)
(0.0191935 1.69796e-08 0)
(0.0191836 1.4615e-07 0)
(0.0191853 -5.29319e-08 0)
(0.0191797 3.41356e-07 0)
(0.0191604 3.79671e-07 0)
(0.0191415 5.1928e-07 0)
(0.0191202 3.06656e-07 0)
(0.419583 -0.000409007 0)
(0.436582 -0.000427623 0)
(0.453208 -0.000346117 0)
(0.467232 -0.000312601 0)
(0.481115 -0.00032724 0)
(0.568018 -0.000123013 0)
(0.574365 -8.9229e-05 0)
(0.579545 -5.0254e-05 0)
(0.583813 -2.24734e-05 0)
(0.586812 1.39301e-05 0)
(0.0235524 -0.00170687 -9.35269e-24)
(0.0234279 -0.00166654 2.01829e-26)
(0.0232302 -0.0016209 -9.53691e-21)
(0.0230759 -0.00158141 -4.77298e-21)
(0.022941 -0.0015416 1.90851e-26)
(0.0227893 -0.00150191 9.27526e-24)
(0.0226153 -0.00146018 -9.23803e-24)
(0.0224601 -0.00142265 9.23817e-24)
(0.0223366 -0.00138511 -3.15685e-40)
(0.0221731 -0.00134719 9.18487e-24)
(0.0191118 3.86394e-07 0)
(0.0190882 3.19564e-07 0)
(0.0190873 1.23026e-07 0)
(0.0190726 3.07392e-07 0)
(0.019068 2.60519e-07 0)
(0.0190387 5.08908e-07 0)
(0.0190413 1.33107e-07 0)
(0.0190016 1.23644e-06 0)
(0.0189648 2.10385e-07 0)
(0.0189591 7.11912e-07 0)
(0.018927 9.64328e-08 0)
(0.0189337 2.85938e-07 0)
(-0.070585 0.032177 -6.14954e-19)
(-0.216535 0.0825481 3.49827e-35)
(-0.115922 0.0325589 -3.56322e-38)
(0.0625457 -0.0228661 -3.0398e-22)
(-0.00528426 0.00553008 -1.38642e-20)
(-0.0430151 0.0171717 -8.15432e-21)
(-0.00345751 -0.00323929 1.5316e-23)
(0.168586 -0.0733271 -1.21145e-21)
(-0.410598 0.0620561 3.0845e-35)
(-0.410471 0.0620291 -3.0557e-19)
(-0.384107 0.057835 -1.88079e-37)
(-0.320835 0.0477656 3.001e-19)
(-0.241343 0.0347326 -5.83941e-22)
(-0.0678841 -0.000157595 5.17591e-23)
(0.0423428 -0.0109866 2.32064e-19)
(0.189868 -0.0342349 9.40395e-38)
(-0.932095 0.0461054 7.39079e-20)
(-1.08758 0.0534498 1.36165e-22)
(-1.1958 0.0581007 -6.83233e-20)
(-1.23148 0.0590785 7.99336e-37)
(-1.19263 0.0571104 6.30246e-20)
(-1.10812 0.0534486 -2.38533e-22)
(0.0253052 -0.00220735 -5.39993e-37)
(0.0250867 -0.00215346 -4.89226e-21)
(0.0249341 -0.00210767 -9.563e-24)
(0.0247847 -0.00206081 -9.51857e-24)
(0.0246265 -0.00201436 1.90157e-23)
(0.0244464 -0.00196577 -2.15364e-26)
(0.0242663 -0.00191972 -4.8651e-21)
(0.0241296 -0.00187648 9.45463e-24)
(0.0239708 -0.00183243 -3.35774e-40)
(0.0238382 -0.00179054 -9.3929e-24)
(0.0236934 -0.00174831 4.81341e-21)
(0.0202384 -0.0110091 1.10806e-22)
(0.0212494 -0.0113381 -5.69038e-20)
(0.0222433 -0.0116464 -2.85608e-20)
(0.0231971 -0.0119231 -2.83874e-20)
(0.0241427 -0.012186 -2.35099e-38)
(0.0250354 -0.0124136 -1.11698e-22)